# vtk DataFile Version 3.0
Laplace Solution
ASCII
DATASET STRUCTURED_POINTS
DIMENSIONS 32 32 1
ORIGIN 0 0 0
SPACING 0.0322581 0.0322581 1
POINT_DATA 1024
SCALARS solution double
LOOKUP_TABLE default
0
0
0
0
0
0
0
0
0
0
0
0
0
0
0
0
0
0
0
0
0
0
0
0
0
0
0
0
0
0
0
0
0
0.0406601
0.0796556
0.11539
0.1464
0.171417
0.189416
0.19966
0.20173
0.195541
0.181347
0.159728
0.13157
0.0980257
0.0604681
0.0204349
-0.0204349
-0.0604681
-0.0980257
-0.13157
-0.159728
-0.181347
-0.195541
-0.20173
-0.19966
-0.189416
-0.171417
-0.1464
-0.11539
-0.0796556
-0.0406601
0
0
0.0796556
0.15605
0.226056
0.286807
0.335816
0.371077
0.391145
0.395201
0.383076
0.355269
0.312917
0.257754
0.192038
0.118461
0.0400332
-0.0400332
-0.118461
-0.192038
-0.257754
-0.312917
-0.355269
-0.383076
-0.395201
-0.391145
-0.371077
-0.335816
-0.286807
-0.226056
-0.15605
-0.0796556
0
0
0.11539
0.226056
0.327467
0.415471
0.486467
0.537546
0.566618
0.572492
0.554929
0.514647
0.453295
0.373385
0.278189
0.171603
0.0579925
-0.0579925
-0.171603
-0.278189
-0.373385
-0.453295
-0.514647
-0.554929
-0.572492
-0.566618
-0.537546
-0.486467
-0.415471
-0.327467
-0.226056
-0.11539
0
0
0.1464
0.286807
0.415471
0.527127
0.617201
0.682008
0.718892
0.726346
0.704062
0.652954
0.575115
0.47373
0.35295
0.217721
0.0735776
-0.0735776
-0.217721
-0.35295
-0.47373
-0.575115
-0.652954
-0.704062
-0.726346
-0.718892
-0.682008
-0.617201
-0.527127
-0.415471
-0.286807
-0.1464
0
0
0.171417
0.335816
0.486467
0.617201
0.722668
0.798548
0.841736
0.850462
0.824371
0.76453
0.673389
0.55468
0.413262
0.254924
0.0861504
-0.0861504
-0.254924
-0.413262
-0.55468
-0.673389
-0.76453
-0.824371
-0.850462
-0.841736
-0.798548
-0.722668
-0.617201
-0.486467
-0.335816
-0.171417
0
0
0.189416
0.371077
0.537546
0.682008
0.798548
0.882396
0.930118
0.939761
0.910931
0.844806
0.744095
0.612921
0.456654
0.281691
0.0951963
-0.0951963
-0.281691
-0.456654
-0.612921
-0.744095
-0.844806
-0.910931
-0.939761
-0.930118
-0.882396
-0.798548
-0.682008
-0.537546
-0.371077
-0.189416
0
0
0.19966
0.391145
0.566618
0.718892
0.841736
0.930118
0.980421
0.990586
0.960196
0.890496
0.784338
0.64607
0.481351
0.296926
0.100345
-0.100345
-0.296926
-0.481351
-0.64607
-0.784338
-0.890496
-0.960196
-0.990586
-0.980421
-0.930118
-0.841736
-0.718892
-0.566618
-0.391145
-0.19966
0
0
0.20173
0.395201
0.572492
0.726346
0.850462
0.939761
0.990586
1.00086
0.970151
0.899728
0.79247
0.652768
0.486342
0.300005
0.101385
-0.101385
-0.300005
-0.486342
-0.652768
-0.79247
-0.899728
-0.970151
-1.00086
-0.990586
-0.939761
-0.850462
-0.726346
-0.572492
-0.395201
-0.20173
0
0
0.195541
0.383076
0.554929
0.704062
0.824371
0.910931
0.960196
0.970151
0.940388
0.872126
0.768158
0.632742
0.471421
0.290801
0.0982747
-0.0982747
-0.290801
-0.471421
-0.632742
-0.768158
-0.872126
-0.940388
-0.970151
-0.960196
-0.910931
-0.824371
-0.704062
-0.554929
-0.383076
-0.195541
0
0
0.181347
0.355269
0.514647
0.652954
0.76453
0.844806
0.890496
0.899728
0.872126
0.808818
0.712397
0.586811
0.437201
0.269692
0.091141
-0.091141
-0.269692
-0.437201
-0.586811
-0.712397
-0.808818
-0.872126
-0.899728
-0.890496
-0.844806
-0.76453
-0.652954
-0.514647
-0.355269
-0.181347
0
0
0.159728
0.312917
0.453295
0.575115
0.673389
0.744095
0.784338
0.79247
0.768158
0.712397
0.627471
0.516857
0.385081
0.237541
0.0802759
-0.0802759
-0.237541
-0.385081
-0.516857
-0.627471
-0.712397
-0.768158
-0.79247
-0.784338
-0.744095
-0.673389
-0.575115
-0.453295
-0.312917
-0.159728
0
0
0.13157
0.257754
0.373385
0.47373
0.55468
0.612921
0.64607
0.652768
0.632742
0.586811
0.516857
0.425742
0.317197
0.195666
0.0661243
-0.0661243
-0.195666
-0.317197
-0.425742
-0.516857
-0.586811
-0.632742
-0.652768
-0.64607
-0.612921
-0.55468
-0.47373
-0.373385
-0.257754
-0.13157
0
0
0.0980257
0.192038
0.278189
0.35295
0.413262
0.456654
0.481351
0.486342
0.471421
0.437201
0.385081
0.317197
0.236326
0.14578
0.0492656
-0.0492656
-0.14578
-0.236326
-0.317197
-0.385081
-0.437201
-0.471421
-0.486342
-0.481351
-0.456654
-0.413262
-0.35295
-0.278189
-0.192038
-0.0980257
0
0
0.0604681
0.118461
0.171603
0.217721
0.254924
0.281691
0.296926
0.300005
0.290801
0.269692
0.237541
0.195666
0.14578
0.0899257
0.03039
-0.03039
-0.0899257
-0.14578
-0.195666
-0.237541
-0.269692
-0.290801
-0.300005
-0.296926
-0.281691
-0.254924
-0.217721
-0.171603
-0.118461
-0.0604681
0
0
0.0204349
0.0400332
0.0579925
0.0735776
0.0861504
0.0951963
0.100345
0.101385
0.0982747
0.091141
0.0802759
0.0661243
0.0492656
0.03039
0.0102701
-0.0102701
-0.03039
-0.0492656
-0.0661243
-0.0802759
-0.091141
-0.0982747
-0.101385
-0.100345
-0.0951963
-0.0861504
-0.0735776
-0.0579925
-0.0400332
-0.0204349
0
0
-0.0204349
-0.0400332
-0.0579925
-0.0735776
-0.0861504
-0.0951963
-0.100345
-0.101385
-0.0982747
-0.091141
-0.0802759
-0.0661243
-0.0492656
-0.03039
-0.0102701
0.0102701
0.03039
0.0492656
0.0661243
0.0802759
0.091141
0.0982747
0.101385
0.100345
0.0951963
0.0861504
0.0735776
0.0579925
0.0400332
0.0204349
0
0
-0.0604681
-0.118461
-0.171603
-0.217721
-0.254924
-0.281691
-0.296926
-0.300005
-0.290801
-0.269692
-0.237541
-0.195666
-0.14578
-0.0899257
-0.03039
0.03039
0.0899257
0.14578
0.195666
0.237541
0.269692
0.290801
0.300005
0.296926
0.281691
0.254924
0.217721
0.171603
0.118461
0.0604681
0
0
-0.0980257
-0.192038
-0.278189
-0.35295
-0.413262
-0.456654
-0.481351
-0.486342
-0.471421
-0.437201
-0.385081
-0.317197
-0.236326
-0.14578
-0.0492656
0.0492656
0.14578
0.236326
0.317197
0.385081
0.437201
0.471421
0.486342
0.481351
0.456654
0.413262
0.35295
0.278189
0.192038
0.0980257
0
0
-0.13157
-0.257754
-0.373385
-0.47373
-0.55468
-0.612921
-0.64607
-0.652768
-0.632742
-0.586811
-0.516857
-0.425742
-0.317197
-0.195666
-0.0661243
0.0661243
0.195666
0.317197
0.425742
0.516857
0.586811
0.632742
0.652768
0.64607
0.612921
0.55468
0.47373
0.373385
0.257754
0.13157
0
0
-0.159728
-0.312917
-0.453295
-0.575115
-0.673389
-0.744095
-0.784338
-0.79247
-0.768158
-0.712397
-0.627471
-0.516857
-0.385081
-0.237541
-0.0802759
0.0802759
0.237541
0.385081
0.516857
0.627471
0.712397
0.768158
0.79247
0.784338
0.744095
0.673389
0.575115
0.453295
0.312917
0.159728
0
0
-0.181347
-0.355269
-0.514647
-0.652954
-0.76453
-0.844806
-0.890496
-0.899728
-0.872126
-0.808818
-0.712397
-0.586811
-0.437201
-0.269692
-0.091141
0.091141
0.269692
0.437201
0.586811
0.712397
0.808818
0.872126
0.899728
0.890496
0.844806
0.76453
0.652954
0.514647
0.355269
0.181347
0
0
-0.195541
-0.383076
-0.554929
-0.704062
-0.824371
-0.910931
-0.960196
-0.970151
-0.940388
-0.872126
-0.768158
-0.632742
-0.471421
-0.290801
-0.0982747
0.0982747
0.290801
0.471421
0.632742
0.768158
0.872126
0.940388
0.970151
0.960196
0.910931
0.824371
0.704062
0.554929
0.383076
0.195541
0
0
-0.20173
-0.395201
-0.572492
-0.726346
-0.850462
-0.939761
-0.990586
-1.00086
-0.970151
-0.899728
-0.79247
-0.652768
-0.486342
-0.300005
-0.101385
0.101385
0.300005
0.486342
0.652768
0.79247
0.899728
0.970151
1.00086
0.990586
0.939761
0.850462
0.726346
0.572492
0.395201
0.20173
0
0
-0.19966
-0.391145
-0.566618
-0.718892
-0.841736
-0.930118
-0.980421
-0.990586
-0.960196
-0.890496
-0.784338
-0.64607
-0.481351
-0.296926
-0.100345
0.100345
0.296926
0.481351
0.64607
0.784338
0.890496
0.960196
0.990586
0.980421
0.930118
0.841736
0.718892
0.566618
0.391145
0.19966
0
0
-0.189416
-0.371077
-0.537546
-0.682008
-0.798548
-0.882396
-0.930118
-0.939761
-0.910931
-0.844806
-0.744095
-0.612921
-0.456654
-0.281691
-0.0951963
0.0951963
0.281691
0.456654
0.612921
0.744095
0.844806
0.910931
0.939761
0.930118
0.882396
0.798548
0.682008
0.537546
0.371077
0.189416
0
0
-0.171417
-0.335816
-0.486467
-0.617201
-0.722668
-0.798548
-0.841736
-0.850462
-0.824371
-0.76453
-0.673389
-0.55468
-0.413262
-0.254924
-0.0861504
0.0861504
0.254924
0.413262
0.55468
0.673389
0.76453
0.824371
0.850462
0.841736
0.798548
0.722668
0.617201
0.486467
0.335816
0.171417
0
0
-0.1464
-0.286807
-0.415471
-0.527127
-0.617201
-0.682008
-0.718892
-0.726346
-0.704062
-0.652954
-0.575115
-0.47373
-0.35295
-0.217721
-0.0735776
0.0735776
0.217721
0.35295
0.47373
0.575115
0.652954
0.704062
0.726346
0.718892
0.682008
0.617201
0.527127
0.415471
0.286807
0.1464
0
0
-0.11539
-0.226056
-0.327467
-0.415471
-0.486467
-0.537546
-0.566618
-0.572492
-0.554929
-0.514647
-0.453295
-0.373385
-0.278189
-0.171603
-0.0579925
0.0579925
0.171603
0.278189
0.373385
0.453295
0.514647
0.554929
0.572492
0.566618
0.537546
0.486467
0.415471
0.327467
0.226056
0.11539
0
0
-0.0796556
-0.15605
-0.226056
-0.286807
-0.335816
-0.371077
-0.391145
-0.395201
-0.383076
-0.355269
-0.312917
-0.257754
-0.192038
-0.118461
-0.0400332
0.0400332
0.118461
0.192038
0.257754
0.312917
0.355269
0.383076
0.395201
0.391145
0.371077
0.335816
0.286807
0.226056
0.15605
0.0796556
0
0
-0.0406601
-0.0796556
-0.11539
-0.1464
-0.171417
-0.189416
-0.19966
-0.20173
-0.195541
-0.181347
-0.159728
-0.13157
-0.0980257
-0.0604681
-0.0204349
0.0204349
0.0604681
0.0980257
0.13157
0.159728
0.181347
0.195541
0.20173
0.19966
0.189416
0.171417
0.1464
0.11539
0.0796556
0.0406601
0
0
0
0
0
0
0
0
0
0
0
0
0
0
0
0
0
0
0
0
0
0
0
0
0
0
0
0
0
0
0
0
0
