# vtk DataFile Version 3.0
Laplace Solution
ASCII
DATASET STRUCTURED_POINTS
DIMENSIONS 64 64 1
ORIGIN 0 0 0
SPACING 0.015873 0.015873 1
POINT_DATA 4096
SCALARS solution double
LOOKUP_TABLE default
0
0
0
0
0
0
0
0
0
0
0
0
0
0
0
0
0
0
0
0
0
0
0
0
0
0
0
0
0
0
0
0
0
0
0
0
0
0
0
0
0
0
0
0
0
0
0
0
0
0
0
0
0
0
0
0
0
0
0
0
0
0
0
0
0
0.00992198
0.0197453
0.0293725
0.0387077
0.0476582
0.0561351
0.064054
0.0713364
0.0779098
0.0837089
0.0886761
0.0927619
0.0959259
0.0981365
0.0993718
0.0996194
0.098877
0.097152
0.0944613
0.0908319
0.0862998
0.08091
0.074716
0.0677795
0.0601694
0.0519612
0.0432367
0.0340824
0.0245895
0.0148521
0.00496716
-0.00496716
-0.0148521
-0.0245895
-0.0340824
-0.0432367
-0.0519612
-0.0601694
-0.0677795
-0.074716
-0.08091
-0.0862998
-0.0908319
-0.0944613
-0.097152
-0.098877
-0.0996194
-0.0993718
-0.0981365
-0.0959259
-0.0927619
-0.0886761
-0.0837089
-0.0779098
-0.0713364
-0.064054
-0.0561351
-0.0476582
-0.0387077
-0.0293725
-0.0197453
-0.00992198
0
0
0.0197453
0.0392945
0.058453
0.0770307
0.0948428
0.111712
0.127471
0.141964
0.155045
0.166586
0.176471
0.184602
0.190898
0.195298
0.197756
0.198249
0.196771
0.193338
0.187984
0.180761
0.171742
0.161016
0.148689
0.134885
0.119741
0.103406
0.0860437
0.0678262
0.0489346
0.0295566
0.00988496
-0.00988496
-0.0295566
-0.0489346
-0.0678262
-0.0860437
-0.103406
-0.119741
-0.134885
-0.148689
-0.161016
-0.171742
-0.180761
-0.187984
-0.193338
-0.196771
-0.198249
-0.197756
-0.195298
-0.190898
-0.184602
-0.176471
-0.166586
-0.155045
-0.141964
-0.127471
-0.111712
-0.0948428
-0.0770307
-0.058453
-0.0392945
-0.0197453
0
0
0.0293725
0.058453
0.0869527
0.114588
0.141085
0.166179
0.189622
0.21118
0.23064
0.247807
0.262512
0.274607
0.283974
0.290518
0.294175
0.294908
0.29271
0.287603
0.279638
0.268894
0.255477
0.239521
0.221185
0.200651
0.178122
0.153823
0.127996
0.100896
0.0727933
0.0439674
0.0147045
-0.0147045
-0.0439674
-0.0727933
-0.100896
-0.127996
-0.153823
-0.178122
-0.200651
-0.221185
-0.239521
-0.255477
-0.268894
-0.279638
-0.287603
-0.29271
-0.294908
-0.294175
-0.290518
-0.283974
-0.274607
-0.262512
-0.247807
-0.23064
-0.21118
-0.189622
-0.166179
-0.141085
-0.114588
-0.0869527
-0.058453
-0.0293725
0
0
0.0387077
0.0770307
0.114588
0.151007
0.185925
0.218995
0.249888
0.278298
0.303942
0.326566
0.345944
0.361884
0.374227
0.382851
0.38767
0.388636
0.38574
0.37901
0.368513
0.354354
0.336673
0.315646
0.291483
0.264422
0.234733
0.202712
0.168675
0.132963
0.0959286
0.0579412
0.0193779
-0.0193779
-0.0579412
-0.0959286
-0.132963
-0.168675
-0.202712
-0.234733
-0.264422
-0.291483
-0.315646
-0.336673
-0.354354
-0.368513
-0.37901
-0.38574
-0.388636
-0.38767
-0.382851
-0.374227
-0.361884
-0.345944
-0.326566
-0.303942
-0.278298
-0.249888
-0.218995
-0.185925
-0.151007
-0.114588
-0.0770307
-0.0387077
0
0
0.0476582
0.0948428
0.141085
0.185925
0.228917
0.269633
0.307671
0.34265
0.374224
0.402079
0.425938
0.445563
0.460761
0.471379
0.477312
0.478502
0.474936
0.46665
0.453726
0.436293
0.414524
0.388635
0.358883
0.325565
0.289011
0.249585
0.207679
0.163708
0.118111
0.0713392
0.0238588
-0.0238588
-0.0713392
-0.118111
-0.163708
-0.207679
-0.249585
-0.289011
-0.325565
-0.358883
-0.388635
-0.414524
-0.436293
-0.453726
-0.46665
-0.474936
-0.478502
-0.477312
-0.471379
-0.460761
-0.445563
-0.425938
-0.402079
-0.374224
-0.34265
-0.307671
-0.269633
-0.228917
-0.185925
-0.141085
-0.0948428
-0.0476582
0
0
0.0561351
0.111712
0.166179
0.218995
0.269633
0.317593
0.362395
0.403597
0.440787
0.473596
0.501698
0.524815
0.542715
0.555222
0.562211
0.563612
0.559412
0.549652
0.534429
0.513895
0.488254
0.45776
0.422717
0.383473
0.340417
0.293978
0.244618
0.192827
0.139119
0.0840281
0.0281025
-0.0281025
-0.0840281
-0.139119
-0.192827
-0.244618
-0.293978
-0.340417
-0.383473
-0.422717
-0.45776
-0.488254
-0.513895
-0.534429
-0.549652
-0.559412
-0.563612
-0.562211
-0.555222
-0.542715
-0.524815
-0.501698
-0.473596
-0.440787
-0.403597
-0.362395
-0.317593
-0.269633
-0.218995
-0.166179
-0.111712
-0.0561351
0
0
0.064054
0.127471
0.189622
0.249888
0.307671
0.362395
0.413519
0.460532
0.502968
0.540406
0.572473
0.59885
0.619276
0.633547
0.641522
0.643121
0.638328
0.627191
0.609821
0.586391
0.557132
0.522336
0.48235
0.437569
0.38844
0.33545
0.279126
0.220029
0.158744
0.095882
0.0320669
-0.0320669
-0.095882
-0.158744
-0.220029
-0.279126
-0.33545
-0.38844
-0.437569
-0.48235
-0.522336
-0.557132
-0.586391
-0.609821
-0.627191
-0.638328
-0.643121
-0.641522
-0.633547
-0.619276
-0.59885
-0.572473
-0.540406
-0.502968
-0.460532
-0.413519
-0.362395
-0.307671
-0.249888
-0.189622
-0.127471
-0.064054
0
0
0.0713364
0.141964
0.21118
0.278298
0.34265
0.403597
0.460532
0.51289
0.560151
0.601845
0.637558
0.666934
0.689682
0.705576
0.714457
0.716238
0.7109
0.698497
0.679152
0.653058
0.620473
0.581721
0.537189
0.487317
0.432602
0.373588
0.310861
0.245044
0.176792
0.106783
0.0357126
-0.0357126
-0.106783
-0.176792
-0.245044
-0.310861
-0.373588
-0.432602
-0.487317
-0.537189
-0.581721
-0.620473
-0.653058
-0.679152
-0.698497
-0.7109
-0.716238
-0.714457
-0.705576
-0.689682
-0.666934
-0.637558
-0.601845
-0.560151
-0.51289
-0.460532
-0.403597
-0.34265
-0.278298
-0.21118
-0.141964
-0.0713364
0
0
0.0779098
0.155045
0.23064
0.303942
0.374224
0.440787
0.502968
0.560151
0.611767
0.657303
0.696307
0.72839
0.753234
0.770592
0.780292
0.782237
0.776407
0.762861
0.741734
0.713235
0.677647
0.635325
0.586689
0.532221
0.472465
0.408013
0.339505
0.267624
0.193083
0.116623
0.0390034
-0.0390034
-0.116623
-0.193083
-0.267624
-0.339505
-0.408013
-0.472465
-0.532221
-0.586689
-0.635325
-0.677647
-0.713235
-0.741734
-0.762861
-0.776407
-0.782237
-0.780292
-0.770592
-0.753234
-0.72839
-0.696307
-0.657303
-0.611767
-0.560151
-0.502968
-0.440787
-0.374224
-0.303942
-0.23064
-0.155045
-0.0779098
0
0
0.0837089
0.166586
0.247807
0.326566
0.402079
0.473596
0.540406
0.601845
0.657303
0.706229
0.748135
0.782606
0.8093
0.82795
0.838372
0.840461
0.834198
0.819644
0.796944
0.766323
0.728087
0.682615
0.630358
0.571837
0.507632
0.438382
0.364776
0.287544
0.207454
0.125303
0.0419066
-0.0419066
-0.125303
-0.207454
-0.287544
-0.364776
-0.438382
-0.507632
-0.571837
-0.630358
-0.682615
-0.728087
-0.766323
-0.796944
-0.819644
-0.834198
-0.840461
-0.838372
-0.82795
-0.8093
-0.782606
-0.748135
-0.706229
-0.657303
-0.601845
-0.540406
-0.473596
-0.402079
-0.326566
-0.247807
-0.166586
-0.0837089
0
0
0.0886761
0.176471
0.262512
0.345944
0.425938
0.501698
0.572473
0.637558
0.696307
0.748135
0.792528
0.829045
0.857322
0.877079
0.888119
0.890333
0.883698
0.86828
0.844233
0.811796
0.771291
0.72312
0.667762
0.605768
0.537754
0.464395
0.386421
0.304606
0.219765
0.132738
0.0443932
-0.0443932
-0.132738
-0.219765
-0.304606
-0.386421
-0.464395
-0.537754
-0.605768
-0.667762
-0.72312
-0.771291
-0.811796
-0.844233
-0.86828
-0.883698
-0.890333
-0.888119
-0.877079
-0.857322
-0.829045
-0.792528
-0.748135
-0.696307
-0.637558
-0.572473
-0.501698
-0.425938
-0.345944
-0.262512
-0.176471
-0.0886761
0
0
0.0927619
0.184602
0.274607
0.361884
0.445563
0.524815
0.59885
0.666934
0.72839
0.782606
0.829045
0.867244
0.896825
0.917492
0.929041
0.931356
0.924415
0.908287
0.883132
0.8492
0.806829
0.756438
0.69853
0.63368
0.562532
0.485793
0.404226
0.318642
0.22989
0.138855
0.0464387
-0.0464387
-0.138855
-0.22989
-0.318642
-0.404226
-0.485793
-0.562532
-0.63368
-0.69853
-0.756438
-0.806829
-0.8492
-0.883132
-0.908287
-0.924415
-0.931356
-0.929041
-0.917492
-0.896825
-0.867244
-0.829045
-0.782606
-0.72839
-0.666934
-0.59885
-0.524815
-0.445563
-0.361884
-0.274607
-0.184602
-0.0927619
0
0
0.0959259
0.190898
0.283974
0.374227
0.460761
0.542715
0.619276
0.689682
0.753234
0.8093
0.857322
0.896825
0.927414
0.948786
0.960729
0.963123
0.955946
0.939267
0.913254
0.878165
0.834348
0.782239
0.722356
0.655294
0.581719
0.502362
0.418013
0.32951
0.237732
0.143591
0.0480226
-0.0480226
-0.143591
-0.237732
-0.32951
-0.418013
-0.502362
-0.581719
-0.655294
-0.722356
-0.782239
-0.834348
-0.878165
-0.913254
-0.939267
-0.955946
-0.963123
-0.960729
-0.948786
-0.927414
-0.896825
-0.857322
-0.8093
-0.753234
-0.689682
-0.619276
-0.542715
-0.460761
-0.374227
-0.283974
-0.190898
-0.0959259
0
0
0.0981365
0.195298
0.290518
0.382851
0.471379
0.555222
0.633547
0.705576
0.770592
0.82795
0.877079
0.917492
0.948786
0.970651
0.982868
0.985318
0.977975
0.960913
0.9343
0.898402
0.853576
0.800266
0.739003
0.670395
0.595124
0.513939
0.427646
0.337103
0.24321
0.1469
0.0491293
-0.0491293
-0.1469
-0.24321
-0.337103
-0.427646
-0.513939
-0.595124
-0.670395
-0.739003
-0.800266
-0.853576
-0.898402
-0.9343
-0.960913
-0.977975
-0.985318
-0.982868
-0.970651
-0.948786
-0.917492
-0.877079
-0.82795
-0.770592
-0.705576
-0.633547
-0.555222
-0.471379
-0.382851
-0.290518
-0.195298
-0.0981365
0
0
0.0993718
0.197756
0.294175
0.38767
0.477312
0.562211
0.641522
0.714457
0.780292
0.838372
0.888119
0.929041
0.960729
0.982868
0.99524
0.99772
0.990285
0.973008
0.946061
0.909711
0.86432
0.810339
0.748305
0.678833
0.602615
0.520408
0.433029
0.341347
0.246271
0.148749
0.0497477
-0.0497477
-0.148749
-0.246271
-0.341347
-0.433029
-0.520408
-0.602615
-0.678833
-0.748305
-0.810339
-0.86432
-0.909711
-0.946061
-0.973008
-0.990285
-0.99772
-0.99524
-0.982868
-0.960729
-0.929041
-0.888119
-0.838372
-0.780292
-0.714457
-0.641522
-0.562211
-0.477312
-0.38767
-0.294175
-0.197756
-0.0993718
0
0
0.0996194
0.198249
0.294908
0.388636
0.478502
0.563612
0.643121
0.716238
0.782237
0.840461
0.890333
0.931356
0.963123
0.985318
0.99772
1.00021
0.992753
0.975433
0.948418
0.911978
0.866474
0.812359
0.75017
0.680525
0.604117
0.521705
0.434109
0.342197
0.246885
0.149119
0.0498717
-0.0498717
-0.149119
-0.246885
-0.342197
-0.434109
-0.521705
-0.604117
-0.680525
-0.75017
-0.812359
-0.866474
-0.911978
-0.948418
-0.975433
-0.992753
-1.00021
-0.99772
-0.985318
-0.963123
-0.931356
-0.890333
-0.840461
-0.782237
-0.716238
-0.643121
-0.563612
-0.478502
-0.388636
-0.294908
-0.198249
-0.0996194
0
0
0.098877
0.196771
0.29271
0.38574
0.474936
0.559412
0.638328
0.7109
0.776407
0.834198
0.883698
0.924415
0.955946
0.977975
0.990285
0.992753
0.985355
0.968164
0.941351
0.905182
0.860017
0.806305
0.744579
0.675454
0.599615
0.517817
0.430873
0.339647
0.245045
0.148008
0.0495001
-0.0495001
-0.148008
-0.245045
-0.339647
-0.430873
-0.517817
-0.599615
-0.675454
-0.744579
-0.806305
-0.860017
-0.905182
-0.941351
-0.968164
-0.985355
-0.992753
-0.990285
-0.977975
-0.955946
-0.924415
-0.883698
-0.834198
-0.776407
-0.7109
-0.638328
-0.559412
-0.474936
-0.38574
-0.29271
-0.196771
-0.098877
0
0
0.097152
0.193338
0.287603
0.37901
0.46665
0.549652
0.627191
0.698497
0.762861
0.819644
0.86828
0.908287
0.939267
0.960913
0.973008
0.975433
0.968164
0.951273
0.924927
0.889389
0.845012
0.792237
0.731589
0.663669
0.589154
0.508783
0.423356
0.333721
0.24077
0.145426
0.0486364
-0.0486364
-0.145426
-0.24077
-0.333721
-0.423356
-0.508783
-0.589154
-0.663669
-0.731589
-0.792237
-0.845012
-0.889389
-0.924927
-0.951273
-0.968164
-0.975433
-0.973008
-0.960913
-0.939267
-0.908287
-0.86828
-0.819644
-0.762861
-0.698497
-0.627191
-0.549652
-0.46665
-0.37901
-0.287603
-0.193338
-0.097152
0
0
0.0944613
0.187984
0.279638
0.368513
0.453726
0.534429
0.609821
0.679152
0.741734
0.796944
0.844233
0.883132
0.913254
0.9343
0.946061
0.948418
0.941351
0.924927
0.899311
0.864758
0.82161
0.770296
0.711327
0.645289
0.572837
0.494693
0.411631
0.324479
0.234102
0.141398
0.0472895
-0.0472895
-0.141398
-0.234102
-0.324479
-0.411631
-0.494693
-0.572837
-0.645289
-0.711327
-0.770296
-0.82161
-0.864758
-0.899311
-0.924927
-0.941351
-0.948418
-0.946061
-0.9343
-0.913254
-0.883132
-0.844233
-0.796944
-0.741734
-0.679152
-0.609821
-0.534429
-0.453726
-0.368513
-0.279638
-0.187984
-0.0944613
0
0
0.0908319
0.180761
0.268894
0.354354
0.436293
0.513895
0.586391
0.653058
0.713235
0.766323
0.811796
0.8492
0.878165
0.898402
0.909711
0.911978
0.905182
0.889389
0.864758
0.831532
0.790042
0.7407
0.683997
0.620496
0.550828
0.475685
0.395816
0.312012
0.225107
0.135966
0.0454725
-0.0454725
-0.135966
-0.225107
-0.312012
-0.395816
-0.475685
-0.550828
-0.620496
-0.683997
-0.7407
-0.790042
-0.831532
-0.864758
-0.889389
-0.905182
-0.911978
-0.909711
-0.898402
-0.878165
-0.8492
-0.811796
-0.766323
-0.713235
-0.653058
-0.586391
-0.513895
-0.436293
-0.354354
-0.268894
-0.180761
-0.0908319
0
0
0.0862998
0.171742
0.255477
0.336673
0.414524
0.488254
0.557132
0.620473
0.677647
0.728087
0.771291
0.806829
0.834348
0.853576
0.86432
0.866474
0.860017
0.845012
0.82161
0.790042
0.750622
0.703742
0.649868
0.589535
0.523344
0.451951
0.376066
0.296444
0.213875
0.129181
0.0432036
-0.0432036
-0.129181
-0.213875
-0.296444
-0.376066
-0.451951
-0.523344
-0.589535
-0.649868
-0.703742
-0.750622
-0.790042
-0.82161
-0.845012
-0.860017
-0.866474
-0.86432
-0.853576
-0.834348
-0.806829
-0.771291
-0.728087
-0.677647
-0.620473
-0.557132
-0.488254
-0.414524
-0.336673
-0.255477
-0.171742
-0.0862998
0
0
0.08091
0.161016
0.239521
0.315646
0.388635
0.45776
0.522336
0.581721
0.635325
0.682615
0.72312
0.756438
0.782239
0.800266
0.810339
0.812359
0.806305
0.792237
0.770296
0.7407
0.703742
0.65979
0.609281
0.552716
0.490658
0.423724
0.352579
0.277929
0.200518
0.121113
0.0405053
-0.0405053
-0.121113
-0.200518
-0.277929
-0.352579
-0.423724
-0.490658
-0.552716
-0.609281
-0.65979
-0.703742
-0.7407
-0.770296
-0.792237
-0.806305
-0.812359
-0.810339
-0.800266
-0.782239
-0.756438
-0.72312
-0.682615
-0.635325
-0.581721
-0.522336
-0.45776
-0.388635
-0.315646
-0.239521
-0.161016
-0.08091
0
0
0.074716
0.148689
0.221185
0.291483
0.358883
0.422717
0.48235
0.537189
0.586689
0.630358
0.667762
0.69853
0.722356
0.739003
0.748305
0.75017
0.744579
0.731589
0.711327
0.683997
0.649868
0.609281
0.562638
0.510404
0.453097
0.391287
0.325588
0.256653
0.185167
0.111842
0.0374045
-0.0374045
-0.111842
-0.185167
-0.256653
-0.325588
-0.391287
-0.453097
-0.510404
-0.562638
-0.609281
-0.649868
-0.683997
-0.711327
-0.731589
-0.744579
-0.75017
-0.748305
-0.739003
-0.722356
-0.69853
-0.667762
-0.630358
-0.586689
-0.537189
-0.48235
-0.422717
-0.358883
-0.291483
-0.221185
-0.148689
-0.074716
0
0
0.0677795
0.134885
0.200651
0.264422
0.325565
0.383473
0.437569
0.487317
0.532221
0.571837
0.605768
0.63368
0.655294
0.670395
0.678833
0.680525
0.675454
0.663669
0.645289
0.620496
0.589535
0.552716
0.510404
0.463019
0.411032
0.35496
0.295361
0.232826
0.167977
0.101459
0.0339319
-0.0339319
-0.101459
-0.167977
-0.232826
-0.295361
-0.35496
-0.411032
-0.463019
-0.510404
-0.552716
-0.589535
-0.620496
-0.645289
-0.663669
-0.675454
-0.680525
-0.678833
-0.670395
-0.655294
-0.63368
-0.605768
-0.571837
-0.532221
-0.487317
-0.437569
-0.383473
-0.325565
-0.264422
-0.200651
-0.134885
-0.0677795
0
0
0.0601694
0.119741
0.178122
0.234733
0.289011
0.340417
0.38844
0.432602
0.472465
0.507632
0.537754
0.562532
0.581719
0.595124
0.602615
0.604117
0.599615
0.589154
0.572837
0.550828
0.523344
0.490658
0.453097
0.411032
0.364882
0.315106
0.262198
0.206685
0.149117
0.090067
0.0301221
-0.0301221
-0.090067
-0.149117
-0.206685
-0.262198
-0.315106
-0.364882
-0.411032
-0.453097
-0.490658
-0.523344
-0.550828
-0.572837
-0.589154
-0.599615
-0.604117
-0.602615
-0.595124
-0.581719
-0.562532
-0.537754
-0.507632
-0.472465
-0.432602
-0.38844
-0.340417
-0.289011
-0.234733
-0.178122
-0.119741
-0.0601694
0
0
0.0519612
0.103406
0.153823
0.202712
0.249585
0.293978
0.33545
0.373588
0.408013
0.438382
0.464395
0.485793
0.502362
0.513939
0.520408
0.521705
0.517817
0.508783
0.494693
0.475685
0.451951
0.423724
0.391287
0.35496
0.315106
0.27212
0.22643
0.178489
0.128775
0.0777803
0.026013
-0.026013
-0.0777803
-0.128775
-0.178489
-0.22643
-0.27212
-0.315106
-0.35496
-0.391287
-0.423724
-0.451951
-0.475685
-0.494693
-0.508783
-0.517817
-0.521705
-0.520408
-0.513939
-0.502362
-0.485793
-0.464395
-0.438382
-0.408013
-0.373588
-0.33545
-0.293978
-0.249585
-0.202712
-0.153823
-0.103406
-0.0519612
0
0
0.0432367
0.0860437
0.127996
0.168675
0.207679
0.244618
0.279126
0.310861
0.339505
0.364776
0.386421
0.404226
0.418013
0.427646
0.433029
0.434109
0.430873
0.423356
0.411631
0.395816
0.376066
0.352579
0.325588
0.295361
0.262198
0.22643
0.188411
0.14852
0.107153
0.0647206
0.0216453
-0.0216453
-0.0647206
-0.107153
-0.14852
-0.188411
-0.22643
-0.262198
-0.295361
-0.325588
-0.352579
-0.376066
-0.395816
-0.411631
-0.423356
-0.430873
-0.434109
-0.433029
-0.427646
-0.418013
-0.404226
-0.386421
-0.364776
-0.339505
-0.310861
-0.279126
-0.244618
-0.207679
-0.168675
-0.127996
-0.0860437
-0.0432367
0
0
0.0340824
0.0678262
0.100896
0.132963
0.163708
0.192827
0.220029
0.245044
0.267624
0.287544
0.304606
0.318642
0.32951
0.337103
0.341347
0.342197
0.339647
0.333721
0.324479
0.312012
0.296444
0.277929
0.256653
0.232826
0.206685
0.178489
0.14852
0.117075
0.084466
0.0510177
0.0170624
-0.0170624
-0.0510177
-0.084466
-0.117075
-0.14852
-0.178489
-0.206685
-0.232826
-0.256653
-0.277929
-0.296444
-0.312012
-0.324479
-0.333721
-0.339647
-0.342197
-0.341347
-0.337103
-0.32951
-0.318642
-0.304606
-0.287544
-0.267624
-0.245044
-0.220029
-0.192827
-0.163708
-0.132963
-0.100896
-0.0678262
-0.0340824
0
0
0.0245895
0.0489346
0.0727933
0.0959286
0.118111
0.139119
0.158744
0.176792
0.193083
0.207454
0.219765
0.22989
0.237732
0.24321
0.246271
0.246885
0.245045
0.24077
0.234102
0.225107
0.213875
0.200518
0.185167
0.167977
0.149117
0.128775
0.107153
0.084466
0.0609397
0.0368078
0.01231
-0.01231
-0.0368078
-0.0609397
-0.084466
-0.107153
-0.128775
-0.149117
-0.167977
-0.185167
-0.200518
-0.213875
-0.225107
-0.234102
-0.24077
-0.245045
-0.246885
-0.246271
-0.24321
-0.237732
-0.22989
-0.219765
-0.207454
-0.193083
-0.176792
-0.158744
-0.139119
-0.118111
-0.0959286
-0.0727933
-0.0489346
-0.0245895
0
0
0.0148521
0.0295566
0.0439674
0.0579412
0.0713392
0.0840281
0.095882
0.106783
0.116623
0.125303
0.132738
0.138855
0.143591
0.1469
0.148749
0.149119
0.148008
0.145426
0.141398
0.135966
0.129181
0.121113
0.111842
0.101459
0.090067
0.0777803
0.0647206
0.0510177
0.0368078
0.022232
0.0074353
-0.0074353
-0.022232
-0.0368078
-0.0510177
-0.0647206
-0.0777803
-0.090067
-0.101459
-0.111842
-0.121113
-0.129181
-0.135966
-0.141398
-0.145426
-0.148008
-0.149119
-0.148749
-0.1469
-0.143591
-0.138855
-0.132738
-0.125303
-0.116623
-0.106783
-0.095882
-0.0840281
-0.0713392
-0.0579412
-0.0439674
-0.0295566
-0.0148521
0
0
0.00496716
0.00988496
0.0147045
0.0193779
0.0238588
0.0281025
0.0320669
0.0357126
0.0390034
0.0419066
0.0443932
0.0464387
0.0480226
0.0491293
0.0497477
0.0498717
0.0495001
0.0486364
0.0472895
0.0454725
0.0432036
0.0405053
0.0374045
0.0339319
0.0301221
0.026013
0.0216453
0.0170624
0.01231
0.0074353
0.00248667
-0.00248667
-0.0074353
-0.01231
-0.0170624
-0.0216453
-0.026013
-0.0301221
-0.0339319
-0.0374045
-0.0405053
-0.0432036
-0.0454725
-0.0472895
-0.0486364
-0.0495001
-0.0498717
-0.0497477
-0.0491293
-0.0480226
-0.0464387
-0.0443932
-0.0419066
-0.0390034
-0.0357126
-0.0320669
-0.0281025
-0.0238588
-0.0193779
-0.0147045
-0.00988496
-0.00496716
0
0
-0.00496716
-0.00988496
-0.0147045
-0.0193779
-0.0238588
-0.0281025
-0.0320669
-0.0357126
-0.0390034
-0.0419066
-0.0443932
-0.0464387
-0.0480226
-0.0491293
-0.0497477
-0.0498717
-0.0495001
-0.0486364
-0.0472895
-0.0454725
-0.0432036
-0.0405053
-0.0374045
-0.0339319
-0.0301221
-0.026013
-0.0216453
-0.0170624
-0.01231
-0.0074353
-0.00248667
0.00248667
0.0074353
0.01231
0.0170624
0.0216453
0.026013
0.0301221
0.0339319
0.0374045
0.0405053
0.0432036
0.0454725
0.0472895
0.0486364
0.0495001
0.0498717
0.0497477
0.0491293
0.0480226
0.0464387
0.0443932
0.0419066
0.0390034
0.0357126
0.0320669
0.0281025
0.0238588
0.0193779
0.0147045
0.00988496
0.00496716
0
0
-0.0148521
-0.0295566
-0.0439674
-0.0579412
-0.0713392
-0.0840281
-0.095882
-0.106783
-0.116623
-0.125303
-0.132738
-0.138855
-0.143591
-0.1469
-0.148749
-0.149119
-0.148008
-0.145426
-0.141398
-0.135966
-0.129181
-0.121113
-0.111842
-0.101459
-0.090067
-0.0777803
-0.0647206
-0.0510177
-0.0368078
-0.022232
-0.0074353
0.0074353
0.022232
0.0368078
0.0510177
0.0647206
0.0777803
0.090067
0.101459
0.111842
0.121113
0.129181
0.135966
0.141398
0.145426
0.148008
0.149119
0.148749
0.1469
0.143591
0.138855
0.132738
0.125303
0.116623
0.106783
0.095882
0.0840281
0.0713392
0.0579412
0.0439674
0.0295566
0.0148521
0
0
-0.0245895
-0.0489346
-0.0727933
-0.0959286
-0.118111
-0.139119
-0.158744
-0.176792
-0.193083
-0.207454
-0.219765
-0.22989
-0.237732
-0.24321
-0.246271
-0.246885
-0.245045
-0.24077
-0.234102
-0.225107
-0.213875
-0.200518
-0.185167
-0.167977
-0.149117
-0.128775
-0.107153
-0.084466
-0.0609397
-0.0368078
-0.01231
0.01231
0.0368078
0.0609397
0.084466
0.107153
0.128775
0.149117
0.167977
0.185167
0.200518
0.213875
0.225107
0.234102
0.24077
0.245045
0.246885
0.246271
0.24321
0.237732
0.22989
0.219765
0.207454
0.193083
0.176792
0.158744
0.139119
0.118111
0.0959286
0.0727933
0.0489346
0.0245895
0
0
-0.0340824
-0.0678262
-0.100896
-0.132963
-0.163708
-0.192827
-0.220029
-0.245044
-0.267624
-0.287544
-0.304606
-0.318642
-0.32951
-0.337103
-0.341347
-0.342197
-0.339647
-0.333721
-0.324479
-0.312012
-0.296444
-0.277929
-0.256653
-0.232826
-0.206685
-0.178489
-0.14852
-0.117075
-0.084466
-0.0510177
-0.0170624
0.0170624
0.0510177
0.084466
0.117075
0.14852
0.178489
0.206685
0.232826
0.256653
0.277929
0.296444
0.312012
0.324479
0.333721
0.339647
0.342197
0.341347
0.337103
0.32951
0.318642
0.304606
0.287544
0.267624
0.245044
0.220029
0.192827
0.163708
0.132963
0.100896
0.0678262
0.0340824
0
0
-0.0432367
-0.0860437
-0.127996
-0.168675
-0.207679
-0.244618
-0.279126
-0.310861
-0.339505
-0.364776
-0.386421
-0.404226
-0.418013
-0.427646
-0.433029
-0.434109
-0.430873
-0.423356
-0.411631
-0.395816
-0.376066
-0.352579
-0.325588
-0.295361
-0.262198
-0.22643
-0.188411
-0.14852
-0.107153
-0.0647206
-0.0216453
0.0216453
0.0647206
0.107153
0.14852
0.188411
0.22643
0.262198
0.295361
0.325588
0.352579
0.376066
0.395816
0.411631
0.423356
0.430873
0.434109
0.433029
0.427646
0.418013
0.404226
0.386421
0.364776
0.339505
0.310861
0.279126
0.244618
0.207679
0.168675
0.127996
0.0860437
0.0432367
0
0
-0.0519612
-0.103406
-0.153823
-0.202712
-0.249585
-0.293978
-0.33545
-0.373588
-0.408013
-0.438382
-0.464395
-0.485793
-0.502362
-0.513939
-0.520408
-0.521705
-0.517817
-0.508783
-0.494693
-0.475685
-0.451951
-0.423724
-0.391287
-0.35496
-0.315106
-0.27212
-0.22643
-0.178489
-0.128775
-0.0777803
-0.026013
0.026013
0.0777803
0.128775
0.178489
0.22643
0.27212
0.315106
0.35496
0.391287
0.423724
0.451951
0.475685
0.494693
0.508783
0.517817
0.521705
0.520408
0.513939
0.502362
0.485793
0.464395
0.438382
0.408013
0.373588
0.33545
0.293978
0.249585
0.202712
0.153823
0.103406
0.0519612
0
0
-0.0601694
-0.119741
-0.178122
-0.234733
-0.289011
-0.340417
-0.38844
-0.432602
-0.472465
-0.507632
-0.537754
-0.562532
-0.581719
-0.595124
-0.602615
-0.604117
-0.599615
-0.589154
-0.572837
-0.550828
-0.523344
-0.490658
-0.453097
-0.411032
-0.364882
-0.315106
-0.262198
-0.206685
-0.149117
-0.090067
-0.0301221
0.0301221
0.090067
0.149117
0.206685
0.262198
0.315106
0.364882
0.411032
0.453097
0.490658
0.523344
0.550828
0.572837
0.589154
0.599615
0.604117
0.602615
0.595124
0.581719
0.562532
0.537754
0.507632
0.472465
0.432602
0.38844
0.340417
0.289011
0.234733
0.178122
0.119741
0.0601694
0
0
-0.0677795
-0.134885
-0.200651
-0.264422
-0.325565
-0.383473
-0.437569
-0.487317
-0.532221
-0.571837
-0.605768
-0.63368
-0.655294
-0.670395
-0.678833
-0.680525
-0.675454
-0.663669
-0.645289
-0.620496
-0.589535
-0.552716
-0.510404
-0.463019
-0.411032
-0.35496
-0.295361
-0.232826
-0.167977
-0.101459
-0.0339319
0.0339319
0.101459
0.167977
0.232826
0.295361
0.35496
0.411032
0.463019
0.510404
0.552716
0.589535
0.620496
0.645289
0.663669
0.675454
0.680525
0.678833
0.670395
0.655294
0.63368
0.605768
0.571837
0.532221
0.487317
0.437569
0.383473
0.325565
0.264422
0.200651
0.134885
0.0677795
0
0
-0.074716
-0.148689
-0.221185
-0.291483
-0.358883
-0.422717
-0.48235
-0.537189
-0.586689
-0.630358
-0.667762
-0.69853
-0.722356
-0.739003
-0.748305
-0.75017
-0.744579
-0.731589
-0.711327
-0.683997
-0.649868
-0.609281
-0.562638
-0.510404
-0.453097
-0.391287
-0.325588
-0.256653
-0.185167
-0.111842
-0.0374045
0.0374045
0.111842
0.185167
0.256653
0.325588
0.391287
0.453097
0.510404
0.562638
0.609281
0.649868
0.683997
0.711327
0.731589
0.744579
0.75017
0.748305
0.739003
0.722356
0.69853
0.667762
0.630358
0.586689
0.537189
0.48235
0.422717
0.358883
0.291483
0.221185
0.148689
0.074716
0
0
-0.08091
-0.161016
-0.239521
-0.315646
-0.388635
-0.45776
-0.522336
-0.581721
-0.635325
-0.682615
-0.72312
-0.756438
-0.782239
-0.800266
-0.810339
-0.812359
-0.806305
-0.792237
-0.770296
-0.7407
-0.703742
-0.65979
-0.609281
-0.552716
-0.490658
-0.423724
-0.352579
-0.277929
-0.200518
-0.121113
-0.0405053
0.0405053
0.121113
0.200518
0.277929
0.352579
0.423724
0.490658
0.552716
0.609281
0.65979
0.703742
0.7407
0.770296
0.792237
0.806305
0.812359
0.810339
0.800266
0.782239
0.756438
0.72312
0.682615
0.635325
0.581721
0.522336
0.45776
0.388635
0.315646
0.239521
0.161016
0.08091
0
0
-0.0862998
-0.171742
-0.255477
-0.336673
-0.414524
-0.488254
-0.557132
-0.620473
-0.677647
-0.728087
-0.771291
-0.806829
-0.834348
-0.853576
-0.86432
-0.866474
-0.860017
-0.845012
-0.82161
-0.790042
-0.750622
-0.703742
-0.649868
-0.589535
-0.523344
-0.451951
-0.376066
-0.296444
-0.213875
-0.129181
-0.0432036
0.0432036
0.129181
0.213875
0.296444
0.376066
0.451951
0.523344
0.589535
0.649868
0.703742
0.750622
0.790042
0.82161
0.845012
0.860017
0.866474
0.86432
0.853576
0.834348
0.806829
0.771291
0.728087
0.677647
0.620473
0.557132
0.488254
0.414524
0.336673
0.255477
0.171742
0.0862998
0
0
-0.0908319
-0.180761
-0.268894
-0.354354
-0.436293
-0.513895
-0.586391
-0.653058
-0.713235
-0.766323
-0.811796
-0.8492
-0.878165
-0.898402
-0.909711
-0.911978
-0.905182
-0.889389
-0.864758
-0.831532
-0.790042
-0.7407
-0.683997
-0.620496
-0.550828
-0.475685
-0.395816
-0.312012
-0.225107
-0.135966
-0.0454725
0.0454725
0.135966
0.225107
0.312012
0.395816
0.475685
0.550828
0.620496
0.683997
0.7407
0.790042
0.831532
0.864758
0.889389
0.905182
0.911978
0.909711
0.898402
0.878165
0.8492
0.811796
0.766323
0.713235
0.653058
0.586391
0.513895
0.436293
0.354354
0.268894
0.180761
0.0908319
0
0
-0.0944613
-0.187984
-0.279638
-0.368513
-0.453726
-0.534429
-0.609821
-0.679152
-0.741734
-0.796944
-0.844233
-0.883132
-0.913254
-0.9343
-0.946061
-0.948418
-0.941351
-0.924927
-0.899311
-0.864758
-0.82161
-0.770296
-0.711327
-0.645289
-0.572837
-0.494693
-0.411631
-0.324479
-0.234102
-0.141398
-0.0472895
0.0472895
0.141398
0.234102
0.324479
0.411631
0.494693
0.572837
0.645289
0.711327
0.770296
0.82161
0.864758
0.899311
0.924927
0.941351
0.948418
0.946061
0.9343
0.913254
0.883132
0.844233
0.796944
0.741734
0.679152
0.609821
0.534429
0.453726
0.368513
0.279638
0.187984
0.0944613
0
0
-0.097152
-0.193338
-0.287603
-0.37901
-0.46665
-0.549652
-0.627191
-0.698497
-0.762861
-0.819644
-0.86828
-0.908287
-0.939267
-0.960913
-0.973008
-0.975433
-0.968164
-0.951273
-0.924927
-0.889389
-0.845012
-0.792237
-0.731589
-0.663669
-0.589154
-0.508783
-0.423356
-0.333721
-0.24077
-0.145426
-0.0486364
0.0486364
0.145426
0.24077
0.333721
0.423356
0.508783
0.589154
0.663669
0.731589
0.792237
0.845012
0.889389
0.924927
0.951273
0.968164
0.975433
0.973008
0.960913
0.939267
0.908287
0.86828
0.819644
0.762861
0.698497
0.627191
0.549652
0.46665
0.37901
0.287603
0.193338
0.097152
0
0
-0.098877
-0.196771
-0.29271
-0.38574
-0.474936
-0.559412
-0.638328
-0.7109
-0.776407
-0.834198
-0.883698
-0.924415
-0.955946
-0.977975
-0.990285
-0.992753
-0.985355
-0.968164
-0.941351
-0.905182
-0.860017
-0.806305
-0.744579
-0.675454
-0.599615
-0.517817
-0.430873
-0.339647
-0.245045
-0.148008
-0.0495001
0.0495001
0.148008
0.245045
0.339647
0.430873
0.517817
0.599615
0.675454
0.744579
0.806305
0.860017
0.905182
0.941351
0.968164
0.985355
0.992753
0.990285
0.977975
0.955946
0.924415
0.883698
0.834198
0.776407
0.7109
0.638328
0.559412
0.474936
0.38574
0.29271
0.196771
0.098877
0
0
-0.0996194
-0.198249
-0.294908
-0.388636
-0.478502
-0.563612
-0.643121
-0.716238
-0.782237
-0.840461
-0.890333
-0.931356
-0.963123
-0.985318
-0.99772
-1.00021
-0.992753
-0.975433
-0.948418
-0.911978
-0.866474
-0.812359
-0.75017
-0.680525
-0.604117
-0.521705
-0.434109
-0.342197
-0.246885
-0.149119
-0.0498717
0.0498717
0.149119
0.246885
0.342197
0.434109
0.521705
0.604117
0.680525
0.75017
0.812359
0.866474
0.911978
0.948418
0.975433
0.992753
1.00021
0.99772
0.985318
0.963123
0.931356
0.890333
0.840461
0.782237
0.716238
0.643121
0.563612
0.478502
0.388636
0.294908
0.198249
0.0996194
0
0
-0.0993718
-0.197756
-0.294175
-0.38767
-0.477312
-0.562211
-0.641522
-0.714457
-0.780292
-0.838372
-0.888119
-0.929041
-0.960729
-0.982868
-0.99524
-0.99772
-0.990285
-0.973008
-0.946061
-0.909711
-0.86432
-0.810339
-0.748305
-0.678833
-0.602615
-0.520408
-0.433029
-0.341347
-0.246271
-0.148749
-0.0497477
0.0497477
0.148749
0.246271
0.341347
0.433029
0.520408
0.602615
0.678833
0.748305
0.810339
0.86432
0.909711
0.946061
0.973008
0.990285
0.99772
0.99524
0.982868
0.960729
0.929041
0.888119
0.838372
0.780292
0.714457
0.641522
0.562211
0.477312
0.38767
0.294175
0.197756
0.0993718
0
0
-0.0981365
-0.195298
-0.290518
-0.382851
-0.471379
-0.555222
-0.633547
-0.705576
-0.770592
-0.82795
-0.877079
-0.917492
-0.948786
-0.970651
-0.982868
-0.985318
-0.977975
-0.960913
-0.9343
-0.898402
-0.853576
-0.800266
-0.739003
-0.670395
-0.595124
-0.513939
-0.427646
-0.337103
-0.24321
-0.1469
-0.0491293
0.0491293
0.1469
0.24321
0.337103
0.427646
0.513939
0.595124
0.670395
0.739003
0.800266
0.853576
0.898402
0.9343
0.960913
0.977975
0.985318
0.982868
0.970651
0.948786
0.917492
0.877079
0.82795
0.770592
0.705576
0.633547
0.555222
0.471379
0.382851
0.290518
0.195298
0.0981365
0
0
-0.0959259
-0.190898
-0.283974
-0.374227
-0.460761
-0.542715
-0.619276
-0.689682
-0.753234
-0.8093
-0.857322
-0.896825
-0.927414
-0.948786
-0.960729
-0.963123
-0.955946
-0.939267
-0.913254
-0.878165
-0.834348
-0.782239
-0.722356
-0.655294
-0.581719
-0.502362
-0.418013
-0.32951
-0.237732
-0.143591
-0.0480226
0.0480226
0.143591
0.237732
0.32951
0.418013
0.502362
0.581719
0.655294
0.722356
0.782239
0.834348
0.878165
0.913254
0.939267
0.955946
0.963123
0.960729