# vtk DataFile Version 3.0
Laplace Solution
ASCII
DATASET STRUCTURED_POINTS
DIMENSIONS 128 128 1
ORIGIN 0 0 0
SPACING 0.00787402 0.00787402 1
POINT_DATA 16384
SCALARS solution double
LOOKUP_TABLE default
0
0
0
0
0
0
0
0
0
0
0
0
0
0
0
0
0
0
0
0
0
0
0
0
0
0
0
0
0
0
0
0
0
0
0
0
0
0
0
0
0
0
0
0
0
0
0
0
0
0
0
0
0
0
0
0
0
0
0
0
0
0
0
0
0
0
0
0
0
0
0
0
0
0
0
0
0
0
0
0
0
0
0
0
0
0
0
0
0
0
0
0
0
0
0
0
0
0
0
0
0
0
0
0
0
0
0
0
0
0
0
0
0
0
0
0
0
0
0
0
0
0
0
0
0
0
0
0
0
0.00244617
0.00488635
0.00731458
0.0097249
0.0121114
0.0144683
0.0167898
0.0190702
0.0213039
0.0234855
0.0256096
0.0276711
0.0296648
0.031586
0.0334298
0.0351918
0.0368677
0.0384534
0.039945
0.0413389
0.0426315
0.0438199
0.044901
0.0458722
0.0467312
0.0474758
0.0481043
0.048615
0.0490067
0.0492785
0.0494298
0.04946
0.0493693
0.0491577
0.0488258
0.0483744
0.0478047
0.0471179
0.0463159
0.0454005
0.044374
0.0432389
0.041998
0.0406544
0.0392112
0.0376721
0.0360408
0.0343213
0.0325178
0.0306348
0.0286767
0.0266485
0.0245551
0.0224016
0.0201932
0.0179355
0.0156338
0.0132939
0.0109215
0.00852235
0.00610233
0.00366738
0.00122346
-0.00122346
-0.00366738
-0.00610233
-0.00852235
-0.0109215
-0.0132939
-0.0156338
-0.0179355
-0.0201932
-0.0224016
-0.0245551
-0.0266485
-0.0286767
-0.0306348
-0.0325178
-0.0343213
-0.0360408
-0.0376721
-0.0392112
-0.0406544
-0.041998
-0.0432389
-0.044374
-0.0454005
-0.0463159
-0.0471179
-0.0478047
-0.0483744
-0.0488258
-0.0491577
-0.0493693
-0.04946
-0.0494298
-0.0492785
-0.0490067
-0.048615
-0.0481043
-0.0474758
-0.0467312
-0.0458722
-0.044901
-0.0438199
-0.0426315
-0.0413389
-0.039945
-0.0384534
-0.0368677
-0.0351918
-0.0334298
-0.031586
-0.0296648
-0.0276711
-0.0256096
-0.0234855
-0.0213039
-0.0190702
-0.0167898
-0.0144683
-0.0121114
-0.0097249
-0.00731458
-0.00488635
-0.00244617
0
0
0.00488635
0.00976075
0.0146113
0.019426
0.0241932
0.0289012
0.0335385
0.0380937
0.0425557
0.0469136
0.0511566
0.0552744
0.059257
0.0630946
0.0667778
0.0702975
0.0736453
0.0768128
0.0797923
0.0825765
0.0851587
0.0875325
0.0896921
0.0916322
0.093348
0.0948355
0.0960908
0.097111
0.0978935
0.0984365
0.0987386
0.098799
0.0986177
0.098195
0.0975321
0.0966304
0.0954923
0.0941205
0.0925184
0.0906899
0.0886394
0.0863721
0.0838933
0.0812093
0.0783265
0.075252
0.0719934
0.0685586
0.0649561
0.0611945
0.0572833
0.0532318
0.0490501
0.0447483
0.0403371
0.0358271
0.0312294
0.0265554
0.0218163
0.0170238
0.0121897
0.00732579
0.00244392
-0.00244392
-0.00732579
-0.0121897
-0.0170238
-0.0218163
-0.0265554
-0.0312294
-0.0358271
-0.0403371
-0.0447483
-0.0490501
-0.0532318
-0.0572833
-0.0611945
-0.0649561
-0.0685586
-0.0719934
-0.075252
-0.0783265
-0.0812093
-0.0838933
-0.0863721
-0.0886394
-0.0906899
-0.0925184
-0.0941205
-0.0954923
-0.0966304
-0.0975321
-0.098195
-0.0986177
-0.098799
-0.0987386
-0.0984365
-0.0978935
-0.097111
-0.0960908
-0.0948355
-0.093348
-0.0916322
-0.0896921
-0.0875325
-0.0851587
-0.0825765
-0.0797923
-0.0768128
-0.0736453
-0.0702975
-0.0667778
-0.0630946
-0.059257
-0.0552744
-0.0511566
-0.0469136
-0.0425557
-0.0380937
-0.0335385
-0.0289012
-0.0241932
-0.019426
-0.0146113
-0.00976075
-0.00488635
0
0
0.00731458
0.0146113
0.0218722
0.0290796
0.0362158
0.0432634
0.0502052
0.057024
0.0637034
0.0702268
0.0765784
0.0827425
0.0887042
0.0944489
0.0999623
0.105231
0.110243
0.114984
0.119444
0.123612
0.127478
0.131031
0.134264
0.137168
0.139736
0.141963
0.143842
0.145369
0.146541
0.147354
0.147806
0.147896
0.147625
0.146992
0.146
0.14465
0.142946
0.140893
0.138495
0.135757
0.132688
0.129294
0.125583
0.121565
0.11725
0.112648
0.10777
0.102628
0.0972353
0.0916046
0.0857496
0.0796848
0.073425
0.0669856
0.0603822
0.053631
0.0467486
0.0397518
0.0326577
0.0254837
0.0182473
0.0109663
0.00365841
-0.00365841
-0.0109663
-0.0182473
-0.0254837
-0.0326577
-0.0397518
-0.0467486
-0.053631
-0.0603822
-0.0669856
-0.073425
-0.0796848
-0.0857496
-0.0916046
-0.0972353
-0.102628
-0.10777
-0.112648
-0.11725
-0.121565
-0.125583
-0.129294
-0.132688
-0.135757
-0.138495
-0.140893
-0.142946
-0.14465
-0.146
-0.146992
-0.147625
-0.147896
-0.147806
-0.147354
-0.146541
-0.145369
-0.143842
-0.141963
-0.139736
-0.137168
-0.134264
-0.131031
-0.127478
-0.123612
-0.119444
-0.114984
-0.110243
-0.105231
-0.0999623
-0.0944489
-0.0887042
-0.0827425
-0.0765784
-0.0702268
-0.0637034
-0.057024
-0.0502052
-0.0432634
-0.0362158
-0.0290796
-0.0218722
-0.0146113
-0.00731458
0
0
0.0097249
0.019426
0.0290796
0.038662
0.0481498
0.0575197
0.0667489
0.0758148
0.0846951
0.0933682
0.101813
0.110008
0.117934
0.125572
0.132902
0.139907
0.14657
0.152874
0.158804
0.164345
0.169484
0.174209
0.178507
0.182368
0.185783
0.188743
0.191242
0.193272
0.194829
0.19591
0.196511
0.196632
0.196271
0.195429
0.19411
0.192316
0.19005
0.18732
0.184132
0.180493
0.176412
0.171899
0.166966
0.161624
0.155887
0.149768
0.143283
0.136447
0.129277
0.12179
0.114006
0.105943
0.0976203
0.0890589
0.0802795
0.0713037
0.0621533
0.0528509
0.0434192
0.0338811
0.0242602
0.0145799
0.00486394
-0.00486394
-0.0145799
-0.0242602
-0.0338811
-0.0434192
-0.0528509
-0.0621533
-0.0713037
-0.0802795
-0.0890589
-0.0976203
-0.105943
-0.114006
-0.12179
-0.129277
-0.136447
-0.143283
-0.149768
-0.155887
-0.161624
-0.166966
-0.171899
-0.176412
-0.180493
-0.184132
-0.18732
-0.19005
-0.192316
-0.19411
-0.195429
-0.196271
-0.196632
-0.196511
-0.19591
-0.194829
-0.193272
-0.191242
-0.188743
-0.185783
-0.182368
-0.178507
-0.174209
-0.169484
-0.164345
-0.158804
-0.152874
-0.14657
-0.139907
-0.132902
-0.125572
-0.117934
-0.110008
-0.101813
-0.0933682
-0.0846951
-0.0758148
-0.0667489
-0.0575197
-0.0481498
-0.038662
-0.0290796
-0.019426
-0.0097249
0
0
0.0121114
0.0241932
0.0362158
0.0481498
0.0599659
0.0716353
0.0831294
0.09442
0.10548
0.116281
0.126798
0.137005
0.146876
0.156388
0.165517
0.174241
0.182539
0.19039
0.197775
0.204676
0.211076
0.21696
0.222313
0.227122
0.231375
0.235061
0.238173
0.240702
0.242641
0.243987
0.244736
0.244886
0.244436
0.243389
0.241745
0.239511
0.23669
0.233289
0.229318
0.224786
0.219704
0.214084
0.20794
0.201287
0.194142
0.186521
0.178445
0.169931
0.161002
0.151678
0.141984
0.131942
0.121577
0.110914
0.0999804
0.0888019
0.077406
0.0658207
0.0540744
0.0421957
0.0302138
0.0181579
0.00605757
-0.00605757
-0.0181579
-0.0302138
-0.0421957
-0.0540744
-0.0658207
-0.077406
-0.0888019
-0.0999804
-0.110914
-0.121577
-0.131942
-0.141984
-0.151678
-0.161002
-0.169931
-0.178445
-0.186521
-0.194142
-0.201287
-0.20794
-0.214084
-0.219704
-0.224786
-0.229318
-0.233289
-0.23669
-0.239511
-0.241745
-0.243389
-0.244436
-0.244886
-0.244736
-0.243987
-0.242641
-0.240702
-0.238173
-0.235061
-0.231375
-0.227122
-0.222313
-0.21696
-0.211076
-0.204676
-0.197775
-0.19039
-0.182539
-0.174241
-0.165517
-0.156388
-0.146876
-0.137005
-0.126798
-0.116281
-0.10548
-0.09442
-0.0831294
-0.0716353
-0.0599659
-0.0481498
-0.0362158
-0.0241932
-0.0121114
0
0
0.0144683
0.0289012
0.0432634
0.0575197
0.0716353
0.0855755
0.0993064
0.112794
0.126006
0.138909
0.151473
0.163666
0.175458
0.186821
0.197727
0.208149
0.218061
0.22744
0.236262
0.244506
0.252152
0.259181
0.265575
0.27132
0.2764
0.280804
0.284521
0.287542
0.289859
0.291467
0.292361
0.29254
0.292004
0.290752
0.288789
0.286119
0.282749
0.278688
0.273944
0.26853
0.262458
0.255745
0.248405
0.240458
0.231922
0.222819
0.21317
0.203
0.192333
0.181195
0.169614
0.157618
0.145236
0.132498
0.119437
0.106083
0.0924692
0.0786295
0.0645973
0.050407
0.0360934
0.0216914
0.00723637
-0.00723637
-0.0216914
-0.0360934
-0.050407
-0.0645973
-0.0786295
-0.0924692
-0.106083
-0.119437
-0.132498
-0.145236
-0.157618
-0.169614
-0.181195
-0.192333
-0.203
-0.21317
-0.222819
-0.231922
-0.240458
-0.248405
-0.255745
-0.262458
-0.26853
-0.273944
-0.278688
-0.282749
-0.286119
-0.288789
-0.290752
-0.292004
-0.29254
-0.292361
-0.291467
-0.289859
-0.287542
-0.284521
-0.280804
-0.2764
-0.27132
-0.265575
-0.259181
-0.252152
-0.244506
-0.236262
-0.22744
-0.218061
-0.208149
-0.197727
-0.186821
-0.175458
-0.163666
-0.151473
-0.138909
-0.126006
-0.112794
-0.0993064
-0.0855755
-0.0716353
-0.0575197
-0.0432634
-0.0289012
-0.0144683
0
0
0.0167898
0.0335385
0.0502052
0.0667489
0.0831294
0.0993064
0.11524
0.130892
0.146224
0.161198
0.175777
0.189926
0.203611
0.216797
0.229452
0.241547
0.25305
0.263933
0.274171
0.283738
0.292611
0.300767
0.308187
0.314854
0.320749
0.32586
0.330174
0.333679
0.336368
0.338234
0.339272
0.339479
0.338856
0.337404
0.335126
0.332028
0.328117
0.323404
0.317899
0.311616
0.30457
0.29678
0.288262
0.27904
0.269135
0.25857
0.247374
0.235572
0.223193
0.210268
0.196829
0.182908
0.168539
0.153758
0.138601
0.123104
0.107306
0.0912458
0.0749621
0.0584949
0.0418846
0.0251719
0.00839747
-0.00839747
-0.0251719
-0.0418846
-0.0584949
-0.0749621
-0.0912458
-0.107306
-0.123104
-0.138601
-0.153758
-0.168539
-0.182908
-0.196829
-0.210268
-0.223193
-0.235572
-0.247374
-0.25857
-0.269135
-0.27904
-0.288262
-0.29678
-0.30457
-0.311616
-0.317899
-0.323404
-0.328117
-0.332028
-0.335126
-0.337404
-0.338856
-0.339479
-0.339272
-0.338234
-0.336368
-0.333679
-0.330174
-0.32586
-0.320749
-0.314854
-0.308187
-0.300767
-0.292611
-0.283738
-0.274171
-0.263933
-0.25305
-0.241547
-0.229452
-0.216797
-0.203611
-0.189926
-0.175777
-0.161198
-0.146224
-0.130892
-0.11524
-0.0993064
-0.0831294
-0.0667489
-0.0502052
-0.0335385
-0.0167898
0
0
0.0190702
0.0380937
0.057024
0.0758148
0.09442
0.112794
0.130892
0.14867
0.166084
0.183092
0.199651
0.215722
0.231265
0.246242
0.260617
0.274353
0.287419
0.299781
0.311409
0.322275
0.332353
0.341617
0.350046
0.357617
0.364314
0.370119
0.375018
0.378999
0.382054
0.384173
0.385352
0.385587
0.38488
0.38323
0.380643
0.377124
0.372682
0.367329
0.361076
0.35394
0.345937
0.337088
0.327414
0.316939
0.305688
0.29369
0.280972
0.267567
0.253507
0.238827
0.223562
0.20775
0.19143
0.174641
0.157425
0.139824
0.121881
0.103639
0.0851434
0.0664397
0.0475734
0.0285907
0.00953802
-0.00953802
-0.0285907
-0.0475734
-0.0664397
-0.0851434
-0.103639
-0.121881
-0.139824
-0.157425
-0.174641
-0.19143
-0.20775
-0.223562
-0.238827
-0.253507
-0.267567
-0.280972
-0.29369
-0.305688
-0.316939
-0.327414
-0.337088
-0.345937
-0.35394
-0.361076
-0.367329
-0.372682
-0.377124
-0.380643
-0.38323
-0.38488
-0.385587
-0.385352
-0.384173
-0.382054
-0.378999
-0.375018
-0.370119
-0.364314
-0.357617
-0.350046
-0.341617
-0.332353
-0.322275
-0.311409
-0.299781
-0.287419
-0.274353
-0.260617
-0.246242
-0.231265
-0.215722
-0.199651
-0.183092
-0.166084
-0.14867
-0.130892
-0.112794
-0.09442
-0.0758148
-0.057024
-0.0380937
-0.0190702
0
0
0.0213039
0.0425557
0.0637034
0.0846951
0.10548
0.126006
0.146224
0.166084
0.185538
0.204538
0.223037
0.24099
0.258354
0.275085
0.291143
0.306489
0.321085
0.334895
0.347885
0.360024
0.371282
0.381631
0.391047
0.399506
0.406986
0.413471
0.418944
0.423392
0.426804
0.429171
0.430488
0.430752
0.429962
0.428119
0.425228
0.421297
0.416335
0.410354
0.403369
0.395397
0.386457
0.376572
0.365765
0.354063
0.341494
0.32809
0.313883
0.298908
0.283201
0.266801
0.249748
0.232084
0.213853
0.195097
0.175865
0.156202
0.136157
0.115778
0.0951165
0.0742219
0.0531458
0.0319396
0.0106552
-0.0106552
-0.0319396
-0.0531458
-0.0742219
-0.0951165
-0.115778
-0.136157
-0.156202
-0.175865
-0.195097
-0.213853
-0.232084
-0.249748
-0.266801
-0.283201
-0.298908
-0.313883
-0.32809
-0.341494
-0.354063
-0.365765
-0.376572
-0.386457
-0.395397
-0.403369
-0.410354
-0.416335
-0.421297
-0.425228
-0.428119
-0.429962
-0.430752
-0.430488
-0.429171
-0.426804
-0.423392
-0.418944
-0.413471
-0.406986
-0.399506
-0.391047
-0.381631
-0.371282
-0.360024
-0.347885
-0.334895
-0.321085
-0.306489
-0.291143
-0.275085
-0.258354
-0.24099
-0.223037
-0.204538
-0.185538
-0.166084
-0.146224
-0.126006
-0.10548
-0.0846951
-0.0637034
-0.0425557
-0.0213039
0
0
0.0234855
0.0469136
0.0702268
0.0933682
0.116281
0.138909
0.161198
0.183092
0.204538
0.225483
0.245876
0.265668
0.28481
0.303255
0.320957
0.337874
0.353965
0.369189
0.38351
0.396892
0.409303
0.420712
0.431092
0.440416
0.448663
0.455812
0.461846
0.466749
0.47051
0.47312
0.474572
0.474862
0.473991
0.47196
0.468773
0.46444
0.458969
0.452376
0.444676
0.435887
0.426032
0.415134
0.40322
0.39032
0.376464
0.361687
0.346025
0.329517
0.312201
0.294122
0.275323
0.255851
0.235752
0.215076
0.193874
0.172197
0.1501
0.127634
0.104857
0.0818225
0.0585881
0.0352103
0.0117464
-0.0117464
-0.0352103
-0.0585881
-0.0818225
-0.104857
-0.127634
-0.1501
-0.172197
-0.193874
-0.215076
-0.235752
-0.255851
-0.275323
-0.294122
-0.312201
-0.329517
-0.346025
-0.361687
-0.376464
-0.39032
-0.40322
-0.415134
-0.426032
-0.435887
-0.444676
-0.452376
-0.458969
-0.46444
-0.468773
-0.47196
-0.473991
-0.474862
-0.474572
-0.47312
-0.47051
-0.466749
-0.461846
-0.455812
-0.448663
-0.440416
-0.431092
-0.420712
-0.409303
-0.396892
-0.38351
-0.369189
-0.353965
-0.337874
-0.320957
-0.303255
-0.28481
-0.265668
-0.245876
-0.225483
-0.204538
-0.183092
-0.161198
-0.138909
-0.116281
-0.0933682
-0.0702268
-0.0469136
-0.0234855
0
0
0.0256096
0.0511566
0.0765784
0.101813
0.126798
0.151473
0.175777
0.199651
0.223037
0.245876
0.268114
0.289696
0.310569
0.330682
0.349986
0.368433
0.385979
0.40258
0.418196
0.432788
0.446321
0.458763
0.470081
0.480249
0.489242
0.497038
0.503617
0.508964
0.513065
0.515911
0.517494
0.517811
0.516861
0.514645
0.511171
0.506445
0.50048
0.493291
0.484894
0.475311
0.464564
0.452681
0.439689
0.425622
0.410513
0.3944
0.377321
0.359319
0.340438
0.320724
0.300225
0.278991
0.257074
0.234528
0.211409
0.187772
0.163675
0.139178
0.11434
0.0892229
0.063887
0.0383949
0.0128087
-0.0128087
-0.0383949
-0.063887
-0.0892229
-0.11434
-0.139178
-0.163675
-0.187772
-0.211409
-0.234528
-0.257074
-0.278991
-0.300225
-0.320724
-0.340438
-0.359319
-0.377321
-0.3944
-0.410513
-0.425622
-0.439689
-0.452681
-0.464564
-0.475311
-0.484894
-0.493291
-0.50048
-0.506445
-0.511171
-0.514645
-0.516861
-0.517811
-0.517494
-0.515911
-0.513065
-0.508964
-0.503617
-0.497038
-0.489242
-0.480249
-0.470081
-0.458763
-0.446321
-0.432788
-0.418196
-0.40258
-0.385979
-0.368433
-0.349986
-0.330682
-0.310569
-0.289696
-0.268114
-0.245876
-0.223037
-0.199651
-0.175777
-0.151473
-0.126798
-0.101813
-0.0765784
-0.0511566
-0.0256096
0
0
0.0276711
0.0552744
0.0827425
0.110008
0.137005
0.163666
0.189926
0.215722
0.24099
0.265668
0.289696
0.313015
0.335569
0.3573
0.378158
0.39809
0.417048
0.434985
0.451858
0.467625
0.482248
0.495691
0.50792
0.518907
0.528624
0.537047
0.544156
0.549933
0.554364
0.557439
0.55915
0.559492
0.558465
0.556072
0.552317
0.547212
0.540767
0.532998
0.523925
0.513571
0.501959
0.489119
0.475082
0.459883
0.443558
0.426147
0.407694
0.388243
0.367842
0.346541
0.324391
0.301448
0.277767
0.253407
0.228426
0.202886
0.17685
0.150381
0.123544
0.0964048
0.0690296
0.0414855
0.0138398
-0.0138398
-0.0414855
-0.0690296
-0.0964048
-0.123544
-0.150381
-0.17685
-0.202886
-0.228426
-0.253407
-0.277767
-0.301448
-0.324391
-0.346541
-0.367842
-0.388243
-0.407694
-0.426147
-0.443558
-0.459883
-0.475082
-0.489119
-0.501959
-0.513571
-0.523925
-0.532998
-0.540767
-0.547212
-0.552317
-0.556072
-0.558465
-0.559492
-0.55915
-0.557439
-0.554364
-0.549933
-0.544156
-0.537047
-0.528624
-0.518907
-0.50792
-0.495691
-0.482248
-0.467625
-0.451858
-0.434985
-0.417048
-0.39809
-0.378158
-0.3573
-0.335569
-0.313015
-0.289696
-0.265668
-0.24099
-0.215722
-0.189926
-0.163666
-0.137005
-0.110008
-0.0827425
-0.0552744
-0.0276711
0
0
0.0296648
0.059257
0.0887042
0.117934
0.146876
0.175458
0.203611
0.231265
0.258354
0.28481
0.310569
0.335569
0.359747
0.383044
0.405405
0.426773
0.447097
0.466327
0.484415
0.501318
0.516995
0.531406
0.544516
0.556295
0.566711
0.575742
0.583363
0.589556
0.594307
0.597603
0.599437
0.599804
0.598703
0.596137
0.592113
0.586639
0.579729
0.571401
0.561675
0.550574
0.538126
0.524361
0.509312
0.493018
0.475516
0.456851
0.437069
0.416216
0.394345
0.371509
0.347764
0.323168
0.297781
0.271665
0.244884
0.217504
0.189592
0.161216
0.132446
0.103351
0.0740033
0.0444745
0.0148369
-0.0148369
-0.0444745
-0.0740033
-0.103351
-0.132446
-0.161216
-0.189592
-0.217504
-0.244884
-0.271665
-0.297781
-0.323168
-0.347764
-0.371509
-0.394345
-0.416216
-0.437069
-0.456851
-0.475516
-0.493018
-0.509312
-0.524361
-0.538126
-0.550574
-0.561675
-0.571401
-0.579729
-0.586639
-0.592113
-0.596137
-0.598703
-0.599804
-0.599437
-0.597603
-0.594307
-0.589556
-0.583363
-0.575742
-0.566711
-0.556295
-0.544516
-0.531406
-0.516995
-0.501318
-0.484415
-0.466327
-0.447097
-0.426773
-0.405405
-0.383044
-0.359747
-0.335569
-0.310569
-0.28481
-0.258354
-0.231265
-0.203611
-0.175458
-0.146876
-0.117934
-0.0887042
-0.059257
-0.0296648
0
0
0.031586
0.0630946
0.0944489
0.125572
0.156388
0.186821
0.216797
0.246242
0.275085
0.303255
0.330682
0.3573
0.383044
0.407851
0.431659
0.454411
0.476051
0.496527
0.515787
0.533784
0.550476
0.56582
0.57978
0.592321
0.603413
0.613027
0.621142
0.627737
0.632795
0.636305
0.638258
0.638648
0.637476
0.634744
0.630459
0.62463
0.617274
0.608406
0.59805
0.58623
0.572976
0.558319
0.542296
0.524946
0.506312
0.486438
0.465374
0.443171
0.419884
0.395569
0.370286
0.344097
0.317065
0.289258
0.260743
0.23159
0.201871
0.171657
0.141023
0.110044
0.0787958
0.0473548
0.0157978
-0.0157978
-0.0473548
-0.0787958
-0.110044
-0.141023
-0.171657
-0.201871
-0.23159
-0.260743
-0.289258
-0.317065
-0.344097
-0.370286
-0.395569
-0.419884
-0.443171
-0.465374
-0.486438
-0.506312
-0.524946
-0.542296
-0.558319
-0.572976
-0.58623
-0.59805
-0.608406
-0.617274
-0.62463
-0.630459
-0.634744
-0.637476
-0.638648
-0.638258
-0.636305
-0.632795
-0.627737
-0.621142
-0.613027
-0.603413
-0.592321
-0.57978
-0.56582
-0.550476
-0.533784
-0.515787
-0.496527
-0.476051
-0.454411
-0.431659
-0.407851
-0.383044
-0.3573
-0.330682
-0.303255
-0.275085
-0.246242
-0.216797
-0.186821
-0.156388
-0.125572
-0.0944489
-0.0630946
-0.031586
0
0
0.0334298
0.0667778
0.0999623
0.132902
0.165517
0.197727
0.229452
0.260617
0.291143
0.320957
0.349986
0.378158
0.405405
0.431659
0.456858
0.480938
0.503841
0.525512
0.545896
0.564944
0.58261
0.59885
0.613625
0.626898
0.638637
0.648813
0.657401
0.664381
0.669735
0.673449
0.675516
0.67593
0.674689
0.671798
0.667262
0.661093
0.653307
0.643922
0.632961
0.620451
0.606423
0.590911
0.573953
0.55559
0.535868
0.514834
0.49254
0.469041
0.444394
0.41866
0.391901
0.364183
0.335574
0.306144
0.275964
0.24511
0.213655
0.181677
0.149255
0.116468
0.0833956
0.0501191
0.01672
-0.01672
-0.0501191
-0.0833956
-0.116468
-0.149255
-0.181677
-0.213655
-0.24511
-0.275964
-0.306144
-0.335574
-0.364183
-0.391901
-0.41866
-0.444394
-0.469041
-0.49254
-0.514834
-0.535868
-0.55559
-0.573953
-0.590911
-0.606423
-0.620451
-0.632961
-0.643922
-0.653307
-0.661093
-0.667262
-0.671798
-0.674689
-0.67593
-0.675516
-0.673449
-0.669735
-0.664381
-0.657401
-0.648813
-0.638637
-0.626898
-0.613625
-0.59885
-0.58261
-0.564944
-0.545896
-0.525512
-0.503841
-0.480938
-0.456858
-0.431659
-0.405405
-0.378158
-0.349986
-0.320957
-0.291143
-0.260617
-0.229452
-0.197727
-0.165517
-0.132902
-0.0999623
-0.0667778
-0.0334298
0
0
0.0351918
0.0702975
0.105231
0.139907
0.174241
0.208149
0.241547
0.274353
0.306489
0.337874
0.368433
0.39809
0.426773
0.454411
0.480938
0.506287
0.530398
0.55321
0.574669
0.594722
0.613319
0.630415
0.645968
0.659941
0.672299
0.683011
0.692052
0.699399
0.705035
0.708946
0.711121
0.711557
0.710251
0.707207
0.702432
0.695939
0.687742
0.677862
0.666324
0.653154
0.638387
0.622057
0.604205
0.584874
0.564112
0.54197
0.518501
0.493764
0.467818
0.440727
0.412558
0.383379
0.353262
0.32228
0.29051
0.258029
0.224916
0.191253
0.157122
0.122607
0.0877912
0.0527608
0.0176013
-0.0176013
-0.0527608
-0.0877912
-0.122607
-0.157122
-0.191253
-0.224916
-0.258029
-0.29051
-0.32228
-0.353262
-0.383379
-0.412558
-0.440727
-0.467818
-0.493764
-0.518501
-0.54197
-0.564112
-0.584874
-0.604205
-0.622057
-0.638387
-0.653154
-0.666324
-0.677862
-0.687742
-0.695939
-0.702432
-0.707207
-0.710251
-0.711557
-0.711121
-0.708946
-0.705035
-0.699399
-0.692052
-0.683011
-0.672299
-0.659941
-0.645968
-0.630415
-0.613319
-0.594722
-0.574669
-0.55321
-0.530398
-0.506287
-0.480938
-0.454411
-0.426773
-0.39809
-0.368433
-0.337874
-0.306489
-0.274353
-0.241547
-0.208149
-0.174241
-0.139907
-0.105231
-0.0702975
-0.0351918
0
0
0.0368677
0.0736453
0.110243
0.14657
0.182539
0.218061
0.25305
0.287419
0.321085
0.353965
0.385979
0.417048
0.447097
0.476051
0.503841
0.530398
0.555657
0.579556
0.602036
0.623044
0.642526
0.660437
0.676731
0.691369
0.704315
0.715538
0.725009
0.732706
0.738611
0.742707
0.744987
0.745443
0.744075
0.740886
0.735884
0.729081
0.720494
0.710143
0.698055
0.684259
0.668788
0.651681
0.632979
0.612727
0.590977
0.56778
0.543193
0.517278
0.490096
0.461715
0.432205
0.401636
0.370085
0.337628
0.304345
0.270317
0.235627
0.200361
0.164605
0.128446
0.091972
0.0552734
0.0184395
-0.0184395
-0.0552734
-0.091972
-0.128446
-0.164605
-0.200361
-0.235627
-0.270317
-0.304345
-0.337628
-0.370085
-0.401636
-0.432205
-0.461715
-0.490096
-0.517278
-0.543193
-0.56778
-0.590977
-0.612727
-0.632979
-0.651681
-0.668788
-0.684259
-0.698055
-0.710143
-0.720494
-0.729081
-0.735884
-0.740886
-0.744075
-0.745443
-0.744987
-0.742707
-0.738611
-0.732706
-0.725009
-0.715538
-0.704315
-0.691369
-0.676731
-0.660437
-0.642526
-0.623044
-0.602036
-0.579556
-0.555657
-0.530398
-0.503841
-0.476051
-0.447097
-0.417048
-0.385979
-0.353965
-0.321085
-0.287419
-0.25305
-0.218061
-0.182539
-0.14657
-0.110243
-0.0736453
-0.0368677
0
0
0.0384534
0.0768128
0.114984
0.152874
0.19039
0.22744
0.263933
0.299781
0.334895
0.369189
0.40258
0.434985
0.466327
0.496527
0.525512
0.55321
0.579556
0.604482
0.62793
0.649841
0.670162
0.688842
0.705837
0.721105
0.734608
0.746313
0.756192
0.76422
0.770378
0.774651
0.777029
0.777504
0.776078
0.772751
0.767534
0.760439
0.751482
0.740687
0.728079
0.713689
0.697553
0.67971
0.660203
0.639081
0.616395
0.5922
0.566556
0.539526
0.511175
0.481574
0.450794
0.418911
0.386002
0.352149
0.317435
0.281943
0.245762
0.208979
0.171685
0.13397
0.0959278
0.0576507
0.0192326
-0.0192326
-0.0576507
-0.0959278
-0.13397
-0.171685
-0.208979
-0.245762
-0.281943
-0.317435
-0.352149
-0.386002
-0.418911
-0.450794
-0.481574
-0.511175
-0.539526
-0.566556
-0.5922
-0.616395
-0.639081
-0.660203
-0.67971
-0.697553
-0.713689
-0.728079
-0.740687
-0.751482
-0.760439
-0.767534
-0.772751
-0.776078
-0.777504
-0.777029
-0.774651
-0.770378
-0.76422
-0.756192
-0.746313
-0.734608
-0.721105
-0.705837
-0.688842
-0.670162
-0.649841
-0.62793
-0.604482
-0.579556
-0.55321
-0.525512
-0.496527
-0.466327
-0.434985
-0.40258
-0.369189
-0.334895
-0.299781
-0.263933
-0.22744
-0.19039
-0.152874
-0.114984
-0.0768128
-0.0384534
0
0
0.039945
0.0797923
0.119444
0.158804
0.197775
0.236262
0.274171
0.311409
0.347885
0.38351
0.418196
0.451858
0.484415
0.515787
0.545896
0.574669
0.602036
0.62793
0.652287
0.675048
0.696157
0.715562
0.733216
0.749076
0.763103
0.775262
0.785524
0.793864
0.800261
0.8047
0.807169
0.807663
0.806181
0.802726
0.797306
0.789936
0.780632
0.769418
0.756321
0.741373
0.724611
0.706075
0.685812
0.663871
0.640304
0.615171
0.588533
0.560454
0.531004
0.500254
0.46828
0.43516
0.400975
0.365809
0.329748
0.29288
0.255295
0.217085
0.178344
0.139167
0.0996488
0.059887
0.0199786
-0.0199786
-0.059887
-0.0996488
-0.139167
-0.178344
-0.217085
-0.255295
-0.29288
-0.329748
-0.365809
-0.400975
-0.43516
-0.46828
-0.500254
-0.531004
-0.560454
-0.588533
-0.615171
-0.640304
-0.663871
-0.685812
-0.706075
-0.724611
-0.741373
-0.756321
-0.769418
-0.780632
-0.789936
-0.797306
-0.802726
-0.806181
-0.807663
-0.807169
-0.8047
-0.800261
-0.793864
-0.785524
-0.775262
-0.763103
-0.749076
-0.733216
-0.715562
-0.696157
-0.675048
-0.652287
-0.62793
-0.602036
-0.574669
-0.545896
-0.515787
-0.484415
-0.451858
-0.418196
-0.38351
-0.347885
-0.311409
-0.274171
-0.236262
-0.197775
-0.158804
-0.119444
-0.0797923
-0.039945
0
0
0.0413389
0.0825765
0.123612
0.164345
0.204676
0.244506
0.283738
0.322275
0.360024
0.396892
0.432788
0.467625
0.501318
0.533784
0.564944
0.594722
0.623044
0.649841
0.675048
0.698603
0.720448
0.740531
0.758801
0.775214
0.78973
0.802314
0.812934
0.821565
0.828185
0.832779
0.835335
0.835846
0.834312
0.830736
0.825128
0.8175
0.807871
0.796266
0.782712
0.767242
0.749895
0.730713
0.709743
0.687036
0.662647
0.636637
0.609069
0.58001
0.549532
0.51771
0.48462
0.450344
0.414967
0.378574
0.341254
0.303099
0.264203
0.22466
0.184567
0.144023
0.103126
0.0619767
0.0206758
-0.0206758
-0.0619767
-0.103126
-0.144023
-0.184567
-0.22466
-0.264203
-0.303099
-0.341254
-0.378574
-0.414967
-0.450344
-0.48462
-0.51771
-0.549532
-0.58001
-0.609069
-0.636637
-0.662647
-0.687036
-0.709743
-0.730713
-0.749895
-0.767242
-0.782712
-0.796266
-0.807871
-0.8175
-0.825128
-0.830736
-0.834312
-0.835846
-0.835335
-0.832779
-0.828185
-0.821565
-0.812934
-0.802314
-0.78973
-0.775214
-0.758801
-0.740531
-0.720448
-0.698603
-0.675048
-0.649841
-0.623044
-0.594722
-0.564944
-0.533784
-0.501318
-0.467625
-0.432788
-0.396892
-0.360024
-0.322275
-0.283738
-0.244506
-0.204676
-0.164345
-0.123612
-0.0825765
-0.0413389
0
0
0.0426315
0.0851587
0.127478
0.169484
0.211076
0.252152
0.292611
0.332353
0.371282
0.409303
0.446321
0.482248
0.516995
0.550476
0.58261
0.613319
0.642526
0.670162
0.696157
0.720448
0.742977
0.763687
0.782529
0.799455
0.814425
0.827403
0.838355
0.847256
0.854083
0.85882
0.861456
0.861983
0.860401
0.856714
0.85093
0.843063
0.833134
0.821165
0.807187
0.791234
0.773345
0.753563
0.731937
0.708519
0.683368
0.656545
0.628115
0.598147
0.566716
0.533899
0.499774
0.464427
0.427943
0.390412
0.351925
0.312577
0.272465
0.231685
0.190339
0.148526
0.106351
0.0639147
0.0213223
-0.0213223
-0.0639147
-0.106351
-0.148526
-0.190339
-0.231685
-0.272465
-0.312577
-0.351925
-0.390412
-0.427943
-0.464427
-0.499774
-0.533899
-0.566716
-0.598147
-0.628115
-0.656545
-0.683368
-0.708519
-0.731937
-0.753563
-0.773345
-0.791234
-0.807187
-0.821165
-0.833134
-0.843063
-0.85093
-0.856714
-0.860401
-0.861983
-0.861456
-0.85882
-0.854083
-0.847256
-0.838355
-0.827403
-0.814425
-0.799455
-0.782529
-0.763687
-0.742977
-0.720448
-0.696157
-0.670162
-0.642526
-0.613319
-0.58261
-0.550476
-0.516995
-0.482248
-0.446321
-0.409303
-0.371282
-0.332353
-0.292611
-0.252152
-0.211076
-0.169484
-0.127478
-0.0851587
-0.0426315
0
0
0.0438199
0.0875325
0.131031
0.174209
0.21696
0.259181
0.300767
0.341617
0.381631
0.420712
0.458763
0.495691
0.531406
0.56582
0.59885
0.630415
0.660437
0.688842
0.715562
0.740531
0.763687
0.784975
0.804342
0.82174
0.837127
0.850466
0.861724
0.870873
0.87789
0.88276
0.885469
0.886011
0.884385
0.880594
0.874649
0.866563
0.856357
0.844055
0.829688
0.81329
0.794902
0.774568
0.752339
0.728269
0.702417
0.674846
0.645623
0.614821
0.582514
0.548781
0.513705
0.477373
0.439872
0.401294
0.361735
0.32129
0.28006
0.238143
0.195644
0.152667
0.109315
0.0656963
0.0219166
-0.0219166
-0.0656963
-0.109315
-0.152667
-0.195644
-0.238143
-0.28006
-0.32129
-0.361735
-0.401294
-0.439872
-0.477373
-0.513705
-0.548781
-0.582514
-0.614821
-0.645623
-0.674846
-0.702417
-0.728269
-0.752339
-0.774568
-0.794902
-0.81329
-0.829688
-0.844055
-0.856357
-0.866563
-0.874649
-0.880594
-0.884385
-0.886011
-0.885469
-0.88276
-0.87789
-0.870873
-0.861724
-0.850466
-0.837127
-0.82174
-0.804342
-0.784975
-0.763687
-0.740531
-0.715562
-0.688842
-0.660437
-0.630415
-0.59885
-0.56582
-0.531406
-0.495691
-0.458763
-0.420712
-0.381631
-0.341617
-0.300767
-0.259181
-0.21696
-0.174209
-0.131031
-0.0875325
-0.0438199
0
0
0.044901
0.0896921
0.134264
0.178507
0.222313
0.265575
0.308187
0.350046
0.391047
0.431092
0.470081
0.50792
0.544516
0.57978
0.613625
0.645968
0.676731
0.705837
0.733216
0.758801
0.782529
0.804342
0.824186
0.842014
0.857781
0.871449
0.882984
0.892359
0.899549
0.904539
0.907315
0.90787
0.906204
0.90232
0.896228
0.887943
0.877485
0.864879
0.850157
0.833355
0.814513
0.793678
0.770901
0.746237
0.719747
0.691495
0.661552
0.629989
0.596885
0.56232
0.526379
0.48915
0.450724
0.411195
0.37066
0.329217
0.286969
0.244019
0.200471
0.156433
0.112012
0.0673171
0.0224574
-0.0224574
-0.0673171
-0.112012
-0.156433
-0.200471
-0.244019
-0.286969
-0.329217
-0.37066
-0.411195
-0.450724
-0.48915
-0.526379
-0.56232
-0.596885
-0.629989
-0.661552
-0.691495
-0.719747
-0.746237
-0.770901
-0.793678
-0.814513
-0.833355
-0.850157
-0.864879
-0.877485
-0.887943
-0.896228
-0.90232
-0.906204
-0.90787
-0.907315
-0.904539
-0.899549
-0.892359
-0.882984
-0.871449
-0.857781
-0.842014
-0.824186
-0.804342
-0.782529
-0.758801
-0.733216
-0.705837
-0.676731
-0.645968
-0.613625
-0.57978
-0.544516
-0.50792
-0.470081
-0.431092
-0.391047
-0.350046
-0.308187
-0.265575
-0.222313
-0.178507
-0.134264
-0.0896921
-0.044901
0
0
0.0458722
0.0916322
0.137168
0.182368
0.227122
0.27132
0.314854
0.357617
0.399506
0.440416
0.480249
0.518907
0.556295
0.592321
0.626898
0.659941
0.691369
0.721105
0.749076
0.775214
0.799455
0.82174
0.842014
0.860227
0.876335
0.890299
0.902083
0.911661
0.919007
0.924104
0.92694
0.927508
0.925806
0.921838
0.915614
0.90715
0.896465
0.883587
0.868547
0.851381
0.832131
0.810846
0.787576
0.762378
0.735315
0.706453
0.675862
0.643616
0.609796
0.574484
0.537765
0.499731
0.460474
0.420089
0.378677
0.336338
0.293176
0.249297
0.204808
0.159817
0.114435
0.0687732
0.0229431
-0.0229431
-0.0687732
-0.114435
-0.159817
-0.204808
-0.249297
-0.293176
-0.336338
-0.378677
-0.420089
-0.460474
-0.499731
-0.537765
-0.574484
-0.609796
-0.643616
-0.675862
-0.706453
-0.735315
-0.762378
-0.787576
-0.810846
-0.832131
-0.851381
-0.868547
-0.883587
-0.896465
-0.90715
-0.915614
-0.921838
-0.925806
-0.927508
-0.92694
-0.924104
-0.919007
-0.911661
-0.902083
-0.890299
-0.876335
-0.860227
-0.842014
-0.82174
-0.799455
-0.775214
-0.749076
-0.721105
-0.691369
-0.659941
-0.626898
-0.592321
-0.556295
-0.518907
-0.480249
-0.440416
-0.399506
-0.357617
-0.314854
-0.27132
-0.227122
-0.182368
-0.137168
-0.0916322
-0.0458722
0
0
0.0467312
0.093348
0.139736
0.185783
0.231375
0.2764
0.320749
0.364314
0.406986
0.448663
0.489242
0.528624
0.566711
0.603413
0.638637
0.672299
0.704315
0.734608
0.763103
0.78973
0.814425
0.837127
0.857781
0.876335
0.892745
0.90697
0.918975
0.928732
0.936216
0.941409
0.944298
0.944876
0.943142
0.9391
0.932759
0.924136
0.913252
0.900133
0.884811
0.867323
0.847713
0.826029
0.802323