# vtk DataFile Version 3.0
Laplace Solution
ASCII
DATASET STRUCTURED_POINTS
DIMENSIONS 16 16 1
ORIGIN 0 0 0
SPACING 0.0666667 0.0666667 1
POINT_DATA 256
SCALARS solution double
LOOKUP_TABLE default
0
0
0
0
0
0
0
0
0
0
0
0
0
0
0
0
0
0.167875
0.306723
0.392536
0.410475
0.35744
0.2426
0.0858127
-0.0858127
-0.2426
-0.35744
-0.410475
-0.392536
-0.306723
-0.167875
0
0
0.306723
0.560411
0.717198
0.749976
0.653076
0.443253
0.156788
-0.156788
-0.443253
-0.653076
-0.749976
-0.717198
-0.560411
-0.306723
0
0
0.392536
0.717198
0.917851
0.959799
0.835788
0.567263
0.200653
-0.200653
-0.567263
-0.835788
-0.959799
-0.917851
-0.717198
-0.392536
0
0
0.410475
0.749976
0.959799
1.00366
0.873986
0.593188
0.209823
-0.209823
-0.593188
-0.873986
-1.00366
-0.959799
-0.749976
-0.410475
0
0
0.35744
0.653076
0.835788
0.873986
0.761063
0.516546
0.182713
-0.182713
-0.516546
-0.761063
-0.873986
-0.835788
-0.653076
-0.35744
0
0
0.2426
0.443253
0.567263
0.593188
0.516546
0.350588
0.12401
-0.12401
-0.350588
-0.516546
-0.593188
-0.567263
-0.443253
-0.2426
0
0
0.0858127
0.156788
0.200653
0.209823
0.182713
0.12401
0.0438649
-0.0438649
-0.12401
-0.182713
-0.209823
-0.200653
-0.156788
-0.0858127
0
0
-0.0858127
-0.156788
-0.200653
-0.209823
-0.182713
-0.12401
-0.0438649
0.0438649
0.12401
0.182713
0.209823
0.200653
0.156788
0.0858127
0
0
-0.2426
-0.443253
-0.567263
-0.593188
-0.516546
-0.350588
-0.12401
0.12401
0.350588
0.516546
0.593188
0.567263
0.443253
0.2426
0
0
-0.35744
-0.653076
-0.835788
-0.873986
-0.761063
-0.516546
-0.182713
0.182713
0.516546
0.761063
0.873986
0.835788
0.653076
0.35744
0
0
-0.410475
-0.749976
-0.959799
-1.00366
-0.873986
-0.593188
-0.209823
0.209823
0.593188
0.873986
1.00366
0.959799
0.749976
0.410475
0
0
-0.392536
-0.717198
-0.917851
-0.959799
-0.835788
-0.567263
-0.200653
0.200653
0.567263
0.835788
0.959799
0.917851
0.717198
0.392536
0
0
-0.306723
-0.560411
-0.717198
-0.749976
-0.653076
-0.443253
-0.156788
0.156788
0.443253
0.653076
0.749976
0.717198
0.560411
0.306723
0
0
-0.167875
-0.306723
-0.392536
-0.410475
-0.35744
-0.2426
-0.0858127
0.0858127
0.2426
0.35744
0.410475
0.392536
0.306723
0.167875
0
0
0
0
0
0
0
0
0
0
0
0
0
0
0
0
0
0
0
0
0
0
0
0
0
0
0
0
0
0
0
0
0
0
0
0
0
0
0
0
0
0
0
0
0
0
0
0
0
