# vtk DataFile Version 3.0
Laplace Solution
ASCII
DATASET STRUCTURED_POINTS
DIMENSIONS 256 256 1
ORIGIN 0 0 0
SPACING 0.00392157 0.00392157 1
POINT_DATA 65536
SCALARS solution double
LOOKUP_TABLE default
0
0
0
0
0
0
0
0
0
0
0
0
0
0
0
0
0
0
0
0
0
0
0
0
0
0
0
0
0
0
0
0
0
0
0
0
0
0
0
0
0
0
0
0
0
0
0
0
0
0
0
0
0
0
0
0
0
0
0
0
0
0
0
0
0
0
0
0
0
0
0
0
0
0
0
0
0
0
0
0
0
0
0
0
0
0
0
0
0
0
0
0
0
0
0
0
0
0
0
0
0
0
0
0
0
0
0
0
0
0
0
0
0
0
0
0
0
0
0
0
0
0
0
0
0
0
0
0
0
0
0
0
0
0
0
0
0
0
0
0
0
0
0
0
0
0
0
0
0
0
0
0
0
0
0
0
0
0
0
0
0
0
0
0
0
0
0
0
0
0
0
0
0
0
0
0
0
0
0
0
0
0
0
0
0
0
0
0
0
0
0
0
0
0
0
0
0
0
0
0
0
0
0
0
0
0
0
0
0
0
0
0
0
0
0
0
0
0
0
0
0
0
0
0
0
0
0
0
0
0
0
0
0
0
0
0
0
0
0
0
0
0
0
0
0
0
0
0
0
0
0
0
0
0
0
0
0
0.000607034
0.0012137
0.00181963
0.00242445
0.00302781
0.00362932
0.00422863
0.00482537
0.00541919
0.00600971
0.00659659
0.00717946
0.00775797
0.00833178
0.00890052
0.00946386
0.0100215
0.010573
0.0111181
0.0116564
0.0121877
0.0127115
0.0132277
0.0137358
0.0142356
0.0147267
0.0152089
0.0156819
0.0161453
0.016599
0.0170425
0.0174758
0.0178984
0.0183101
0.0187107
0.0191
0.0194777
0.0198435
0.0201973
0.0205389
0.0208679
0.0211843
0.0214879
0.0217784
0.0220556
0.0223195
0.0225699
0.0228065
0.0230293
0.0232381
0.0234328
0.0236133
0.0237794
0.0239311
0.0240683
0.0241908
0.0242987
0.0243918
0.0244701
0.0245336
0.0245821
0.0246158
0.0246345
0.0246382
0.024627
0.0246008
0.0245597
0.0245037
0.0244328
0.0243471
0.0242466
0.0241314
0.0240015
0.023857
0.0236981
0.0235248
0.0233372
0.0231354
0.0229196
0.0226899
0.0224464
0.0221893
0.0219187
0.0216348
0.0213377
0.0210277
0.020705
0.0203696
0.0200219
0.0196621
0.0192903
0.0189068
0.0185118
0.0181056
0.0176884
0.0172605
0.016822
0.0163734
0.0159148
0.0154466
0.014969
0.0144823
0.0139868
0.0134828
0.0129706
0.0124505
0.0119229
0.0113881
0.0108463
0.010298
0.0097434
0.00918289
0.0086168
0.00804548
0.00746928
0.00688855
0.00630363
0.00571489
0.00512267
0.00452735
0.00392927
0.00332882
0.00272634
0.0021222
0.00151678
0.000910436
0.00030354
-0.00030354
-0.000910436
-0.00151678
-0.0021222
-0.00272634
-0.00332882
-0.00392927
-0.00452735
-0.00512267
-0.00571489
-0.00630363
-0.00688855
-0.00746928
-0.00804548
-0.0086168
-0.00918289
-0.0097434
-0.010298
-0.0108463
-0.0113881
-0.0119229
-0.0124505
-0.0129706
-0.0134828
-0.0139868
-0.0144823
-0.014969
-0.0154466
-0.0159148
-0.0163734
-0.016822
-0.0172605
-0.0176884
-0.0181056
-0.0185118
-0.0189068
-0.0192903
-0.0196621
-0.0200219
-0.0203696
-0.020705
-0.0210277
-0.0213377
-0.0216348
-0.0219187
-0.0221893
-0.0224464
-0.0226899
-0.0229196
-0.0231354
-0.0233372
-0.0235248
-0.0236981
-0.023857
-0.0240015
-0.0241314
-0.0242466
-0.0243471
-0.0244328
-0.0245037
-0.0245597
-0.0246008
-0.024627
-0.0246382
-0.0246345
-0.0246158
-0.0245821
-0.0245336
-0.0244701
-0.0243918
-0.0242987
-0.0241908
-0.0240683
-0.0239311
-0.0237794
-0.0236133
-0.0234328
-0.0232381
-0.0230293
-0.0228065
-0.0225699
-0.0223195
-0.0220556
-0.0217784
-0.0214879
-0.0211843
-0.0208679
-0.0205389
-0.0201973
-0.0198435
-0.0194777
-0.0191
-0.0187107
-0.0183101
-0.0178984
-0.0174758
-0.0170425
-0.016599
-0.0161453
-0.0156819
-0.0152089
-0.0147267
-0.0142356
-0.0137358
-0.0132277
-0.0127115
-0.0121877
-0.0116564
-0.0111181
-0.010573
-0.0100215
-0.00946386
-0.00890052
-0.00833178
-0.00775797
-0.00717946
-0.00659659
-0.00600971
-0.00541919
-0.00482537
-0.00422863
-0.00362932
-0.00302781
-0.00242445
-0.00181963
-0.0012137
-0.000607034
0
0
0.0012137
0.00242666
0.00363815
0.00484744
0.00605377
0.00725644
0.0084547
0.00964782
0.0108351
0.0120158
0.0131892
0.0143546
0.0155112
0.0166585
0.0177956
0.018922
0.0200368
0.0211395
0.0222294
0.0233057
0.0243679
0.0254154
0.0264473
0.0274633
0.0284625
0.0294445
0.0304086
0.0313543
0.0322809
0.0331879
0.0340747
0.0349409
0.0357859
0.0366091
0.0374101
0.0381884
0.0389435
0.039675
0.0403824
0.0410653
0.0417232
0.0423558
0.0429627
0.0435435
0.0440979
0.0446255
0.045126
0.0455991
0.0460446
0.0464621
0.0468513
0.0472122
0.0475443
0.0478476
0.0481219
0.0483669
0.0485826
0.0487688
0.0489254
0.0490523
0.0491494
0.0492166
0.049254
0.0492615
0.049239
0.0491867
0.0491045
0.0489925
0.0488508
0.0486794
0.0484785
0.0482481
0.0479884
0.0476996
0.0473819
0.0470353
0.0466602
0.0462568
0.0458253
0.045366
0.0448792
0.0443651
0.043824
0.0432564
0.0426625
0.0420427
0.0413974
0.0407269
0.0400317
0.0393123
0.0385689
0.0378021
0.0370124
0.0362002
0.0353661
0.0345104
0.0336339
0.0327369
0.03182
0.0308838
0.0299288
0.0289557
0.027965
0.0269574
0.0259333
0.0248935
0.0238386
0.0227693
0.0216861
0.0205897
0.0194809
0.0183602
0.0172284
0.0160861
0.014934
0.0137729
0.0126034
0.0114263
0.0102422
0.00905194
0.00785616
0.00665561
0.00545102
0.00424312
0.00303264
0.00182032
0.000606896
-0.000606896
-0.00182032
-0.00303264
-0.00424312
-0.00545102
-0.00665561
-0.00785616
-0.00905194
-0.0102422
-0.0114263
-0.0126034
-0.0137729
-0.014934
-0.0160861
-0.0172284
-0.0183602
-0.0194809
-0.0205897
-0.0216861
-0.0227693
-0.0238386
-0.0248935
-0.0259333
-0.0269574
-0.027965
-0.0289557
-0.0299288
-0.0308838
-0.03182
-0.0327369
-0.0336339
-0.0345104
-0.0353661
-0.0362002
-0.0370124
-0.0378021
-0.0385689
-0.0393123
-0.0400317
-0.0407269
-0.0413974
-0.0420427
-0.0426625
-0.0432564
-0.043824
-0.0443651
-0.0448792
-0.045366
-0.0458253
-0.0462568
-0.0466602
-0.0470353
-0.0473819
-0.0476996
-0.0479884
-0.0482481
-0.0484785
-0.0486794
-0.0488508
-0.0489925
-0.0491045
-0.0491867
-0.049239
-0.0492615
-0.049254
-0.0492166
-0.0491494
-0.0490523
-0.0489254
-0.0487688
-0.0485826
-0.0483669
-0.0481219
-0.0478476
-0.0475443
-0.0472122
-0.0468513
-0.0464621
-0.0460446
-0.0455991
-0.045126
-0.0446255
-0.0440979
-0.0435435
-0.0429627
-0.0423558
-0.0417232
-0.0410653
-0.0403824
-0.039675
-0.0389435
-0.0381884
-0.0374101
-0.0366091
-0.0357859
-0.0349409
-0.0340747
-0.0331879
-0.0322809
-0.0313543
-0.0304086
-0.0294445
-0.0284625
-0.0274633
-0.0264473
-0.0254154
-0.0243679
-0.0233057
-0.0222294
-0.0211395
-0.0200368
-0.018922
-0.0177956
-0.0166585
-0.0155112
-0.0143546
-0.0131892
-0.0120158
-0.0108351
-0.00964782
-0.0084547
-0.00725644
-0.00605377
-0.00484744
-0.00363815
-0.00242666
-0.0012137
0
0
0.00181963
0.00363815
0.00545447
0.00726747
0.00907607
0.0108791
0.0126756
0.0144644
0.0162444
0.0180145
0.0197738
0.0215209
0.0232551
0.0249751
0.0266799
0.0283686
0.03004
0.0316932
0.0333272
0.0349409
0.0365334
0.0381037
0.0396509
0.0411741
0.0426722
0.0441444
0.0455898
0.0470076
0.0483968
0.0497566
0.0510862
0.0523848
0.0536516
0.0548859
0.0560868
0.0572536
0.0583857
0.0594824
0.0605429
0.0615667
0.0625531
0.0635016
0.0644115
0.0652822
0.0661134
0.0669044
0.0676548
0.0683641
0.0690319
0.0696578
0.0702415
0.0707824
0.0712804
0.0717352
0.0721463
0.0725137
0.0728371
0.0731162
0.073351
0.0735412
0.0736867
0.0737876
0.0738436
0.0738548
0.0738212
0.0737428
0.0736195
0.0734516
0.0732391
0.0729822
0.0726809
0.0723355
0.0719462
0.0715132
0.0710368
0.0705173
0.069955
0.0693501
0.0687032
0.0680146
0.0672847
0.0665139
0.0657028
0.0648518
0.0639614
0.0630321
0.0620646
0.0610595
0.0600172
0.0589385
0.0578241
0.0566745
0.0554905
0.0542729
0.0530223
0.0517395
0.0504253
0.0490804
0.0477058
0.0463022
0.0448705
0.0434116
0.0419263
0.0404156
0.0388803
0.0373214
0.0357399
0.0341366
0.0325127
0.030869
0.0292065
0.0275264
0.0258295
0.0241169
0.0223897
0.0206489
0.0188956
0.0171308
0.0153556
0.013571
0.0117783
0.00997836
0.00817239
0.00636145
0.00454666
0.0027291
0.000909884
-0.000909884
-0.0027291
-0.00454666
-0.00636145
-0.00817239
-0.00997836
-0.0117783
-0.013571
-0.0153556
-0.0171308
-0.0188956
-0.0206489
-0.0223897
-0.0241169
-0.0258295
-0.0275264
-0.0292065
-0.030869
-0.0325127
-0.0341366
-0.0357399
-0.0373214
-0.0388803
-0.0404156
-0.0419263
-0.0434116
-0.0448705
-0.0463022
-0.0477058
-0.0490804
-0.0504253
-0.0517395
-0.0530223
-0.0542729
-0.0554905
-0.0566745
-0.0578241
-0.0589385
-0.0600172
-0.0610595
-0.0620646
-0.0630321
-0.0639614
-0.0648518
-0.0657028
-0.0665139
-0.0672847
-0.0680146
-0.0687032
-0.0693501
-0.069955
-0.0705173
-0.0710368
-0.0715132
-0.0719462
-0.0723355
-0.0726809
-0.0729822
-0.0732391
-0.0734516
-0.0736195
-0.0737428
-0.0738212
-0.0738548
-0.0738436
-0.0737876
-0.0736867
-0.0735412
-0.073351
-0.0731162
-0.0728371
-0.0725137
-0.0721463
-0.0717352
-0.0712804
-0.0707824
-0.0702415
-0.0696578
-0.0690319
-0.0683641
-0.0676548
-0.0669044
-0.0661134
-0.0652822
-0.0644115
-0.0635016
-0.0625531
-0.0615667
-0.0605429
-0.0594824
-0.0583857
-0.0572536
-0.0560868
-0.0548859
-0.0536516
-0.0523848
-0.0510862
-0.0497566
-0.0483968
-0.0470076
-0.0455898
-0.0441444
-0.0426722
-0.0411741
-0.0396509
-0.0381037
-0.0365334
-0.0349409
-0.0333272
-0.0316932
-0.03004
-0.0283686
-0.0266799
-0.0249751
-0.0232551
-0.0215209
-0.0197738
-0.0180145
-0.0162444
-0.0144644
-0.0126756
-0.0108791
-0.00907607
-0.00726747
-0.00545447
-0.00363815
-0.00181963
0
0
0.00242445
0.00484744
0.00726747
0.0096831
0.0120928
0.0144953
0.0168889
0.0192722
0.0216439
0.0240024
0.0263463
0.0286743
0.0309848
0.0332765
0.0355481
0.037798
0.040025
0.0422277
0.0444048
0.0465549
0.0486767
0.050769
0.0528305
0.0548599
0.056856
0.0588175
0.0607434
0.0626324
0.0644833
0.0662952
0.0680667
0.069797
0.0714849
0.0731293
0.0747294
0.0762841
0.0777925
0.0792537
0.0806667
0.0820308
0.0833451
0.0846088
0.0858211
0.0869813
0.0880887
0.0891427
0.0901425
0.0910876
0.0919774
0.0928113
0.0935889
0.0943097
0.0949732
0.0955791
0.096127
0.0966165
0.0970473
0.0974192
0.097732
0.0979854
0.0981794
0.0983137
0.0983884
0.0984033
0.0983585
0.098254
0.0980899
0.0978661
0.097583
0.0972406
0.0968392
0.096379
0.0958603
0.0952834
0.0946487
0.0939564
0.0932072
0.0924014
0.0915394
0.0906219
0.0896494
0.0886224
0.0875417
0.0864078
0.0852214
0.0839833
0.0826942
0.081355
0.0799663
0.0785291
0.0770442
0.0755125
0.073935
0.0723126
0.0706463
0.0689371
0.067186
0.0653942
0.0635627
0.0616926
0.059785
0.0578411
0.0558622
0.0538493
0.0518037
0.0497266
0.0476194
0.0454833
0.0433195
0.0411295
0.0389145
0.0366758
0.0344149
0.0321331
0.0298318
0.0275124
0.0251763
0.0228249
0.0204596
0.0180819
0.0156932
0.0132951
0.0108888
0.00847593
0.00605791
0.00363622
0.00121232
-0.00121232
-0.00363622
-0.00605791
-0.00847593
-0.0108888
-0.0132951
-0.0156932
-0.0180819
-0.0204596
-0.0228249
-0.0251763
-0.0275124
-0.0298318
-0.0321331
-0.0344149
-0.0366758
-0.0389145
-0.0411295
-0.0433195
-0.0454833
-0.0476194
-0.0497266
-0.0518037
-0.0538493
-0.0558622
-0.0578411
-0.059785
-0.0616926
-0.0635627
-0.0653942
-0.067186
-0.0689371
-0.0706463
-0.0723126
-0.073935
-0.0755125
-0.0770442
-0.0785291
-0.0799663
-0.081355
-0.0826942
-0.0839833
-0.0852214
-0.0864078
-0.0875417
-0.0886224
-0.0896494
-0.0906219
-0.0915394
-0.0924014
-0.0932072
-0.0939564
-0.0946487
-0.0952834
-0.0958603
-0.096379
-0.0968392
-0.0972406
-0.097583
-0.0978661
-0.0980899
-0.098254
-0.0983585
-0.0984033
-0.0983884
-0.0983137
-0.0981794
-0.0979854
-0.097732
-0.0974192
-0.0970473
-0.0966165
-0.096127
-0.0955791
-0.0949732
-0.0943097
-0.0935889
-0.0928113
-0.0919774
-0.0910876
-0.0901425
-0.0891427
-0.0880887
-0.0869813
-0.0858211
-0.0846088
-0.0833451
-0.0820308
-0.0806667
-0.0792537
-0.0777925
-0.0762841
-0.0747294
-0.0731293
-0.0714849
-0.069797
-0.0680667
-0.0662952
-0.0644833
-0.0626324
-0.0607434
-0.0588175
-0.056856
-0.0548599
-0.0528305
-0.050769
-0.0486767
-0.0465549
-0.0444048
-0.0422277
-0.040025
-0.037798
-0.0355481
-0.0332765
-0.0309848
-0.0286743
-0.0263463
-0.0240024
-0.0216439
-0.0192722
-0.0168889
-0.0144953
-0.0120928
-0.0096831
-0.00726747
-0.00484744
-0.00242445
0
0
0.00302781
0.00605377
0.00907607
0.0120928
0.0151023
0.0181026
0.0210918
0.0240683
0.0270302
0.0299756
0.0329029
0.0358102
0.0386957
0.0415578
0.0443946
0.0472045
0.0499857
0.0527365
0.0554554
0.0581406
0.0607905
0.0634034
0.0659779
0.0685124
0.0710052
0.0734549
0.0758601
0.0782192
0.0805308
0.0827935
0.0850059
0.0871667
0.0892747
0.0913284
0.0933267
0.0952683
0.0971521
0.0989769
0.100742
0.102445
0.104086
0.105665
0.107179
0.108628
0.110011
0.111327
0.112575
0.113756
0.114867
0.115908
0.11688
0.11778
0.118608
0.119365
0.120049
0.120661
0.121199
0.121663
0.122054
0.12237
0.122612
0.12278
0.122873
0.122892
0.122836
0.122706
0.122501
0.122221
0.121868
0.12144
0.120939
0.120364
0.119716
0.118996
0.118203
0.117339
0.116403
0.115396
0.11432
0.113174
0.11196
0.110677
0.109327
0.107911
0.10643
0.104884
0.103274
0.101601
0.0998668
0.0980719
0.0962175
0.0943046
0.0923345
0.0903084
0.0882274
0.0860929
0.0839061
0.0816683
0.079381
0.0770455
0.0746632
0.0722355
0.0697641
0.0672502
0.0646956
0.0621017
0.05947
0.0568023
0.0541001
0.051365
0.0485988
0.045803
0.0429794
0.0401298
0.0372558
0.0343592
0.0314417
0.0285051
0.0255512
0.0225818
0.0195987
0.0166037
0.0135986
0.0105853
0.00756549
0.00454113
0.00151402
-0.00151402
-0.00454113
-0.00756549
-0.0105853
-0.0135986
-0.0166037
-0.0195987
-0.0225818
-0.0255512
-0.0285051
-0.0314417
-0.0343592
-0.0372558
-0.0401298
-0.0429794
-0.045803
-0.0485988
-0.051365
-0.0541001
-0.0568023
-0.05947
-0.0621017
-0.0646956
-0.0672502
-0.0697641
-0.0722355
-0.0746632
-0.0770455
-0.079381
-0.0816683
-0.0839061
-0.0860929
-0.0882274
-0.0903084
-0.0923345
-0.0943046
-0.0962175
-0.0980719
-0.0998668
-0.101601
-0.103274
-0.104884
-0.10643
-0.107911
-0.109327
-0.110677
-0.11196
-0.113174
-0.11432
-0.115396
-0.116403
-0.117339
-0.118203
-0.118996
-0.119716
-0.120364
-0.120939
-0.12144
-0.121868
-0.122221
-0.122501
-0.122706
-0.122836
-0.122892
-0.122873
-0.12278
-0.122612
-0.12237
-0.122054
-0.121663
-0.121199
-0.120661
-0.120049
-0.119365
-0.118608
-0.11778
-0.11688
-0.115908
-0.114867
-0.113756
-0.112575
-0.111327
-0.110011
-0.108628
-0.107179
-0.105665
-0.104086
-0.102445
-0.100742
-0.0989769
-0.0971521
-0.0952683
-0.0933267
-0.0913284
-0.0892747
-0.0871667
-0.0850059
-0.0827935
-0.0805308
-0.0782192
-0.0758601
-0.0734549
-0.0710052
-0.0685124
-0.0659779
-0.0634034
-0.0607905
-0.0581406
-0.0554554
-0.0527365
-0.0499857
-0.0472045
-0.0443946
-0.0415578
-0.0386957
-0.0358102
-0.0329029
-0.0299756
-0.0270302
-0.0240683
-0.0210918
-0.0181026
-0.0151023
-0.0120928
-0.00907607
-0.00605377
-0.00302781
0
0
0.00362932
0.00725644
0.0108791
0.0144953
0.0181026
0.0216989
0.025282
0.0288498
0.0324001
0.0359307
0.0394395
0.0429244
0.0463832
0.0498138
0.0532142
0.0565823
0.059916
0.0632134
0.0664724
0.069691
0.0728673
0.0759994
0.0790853
0.0821233
0.0851113
0.0880477
0.0909307
0.0937584
0.0965293
0.0992415
0.101893
0.104484
0.10701
0.109472
0.111867
0.114195
0.116453
0.11864
0.120755
0.122797
0.124765
0.126656
0.128471
0.130208
0.131866
0.133443
0.13494
0.136355
0.137687
0.138935
0.140099
0.141178
0.142172
0.143079
0.143899
0.144631
0.145276
0.145833
0.146301
0.146681
0.146971
0.147172
0.147284
0.147306
0.147239
0.147083
0.146837
0.146502
0.146078
0.145566
0.144965
0.144276
0.143499
0.142636
0.141686
0.140649
0.139528
0.138322
0.137031
0.135658
0.134202
0.132665
0.131047
0.129349
0.127573
0.12572
0.12379
0.121785
0.119707
0.117555
0.115332
0.113039
0.110678
0.108249
0.105755
0.103196
0.100575
0.0978928
0.0951511
0.0923516
0.089496
0.0865861
0.0836236
0.0806104
0.0775482
0.074439
0.0712846
0.0680868
0.0648478
0.0615694
0.0582536
0.0549024
0.0515179
0.0481021
0.0446571
0.0411851
0.037688
0.034168
0.0306273
0.027068
0.0234922
0.0199022
0.0163001
0.0126882
0.00906848
0.00544329
0.0018148
-0.0018148
-0.00544329
-0.00906848
-0.0126882
-0.0163001
-0.0199022
-0.0234922
-0.027068
-0.0306273
-0.034168
-0.037688
-0.0411851
-0.0446571
-0.0481021
-0.0515179
-0.0549024
-0.0582536
-0.0615694
-0.0648478
-0.0680868
-0.0712846
-0.074439
-0.0775482
-0.0806104
-0.0836236
-0.0865861
-0.089496
-0.0923516
-0.0951511
-0.0978928
-0.100575
-0.103196
-0.105755
-0.108249
-0.110678
-0.113039
-0.115332
-0.117555
-0.119707
-0.121785
-0.12379
-0.12572
-0.127573
-0.129349
-0.131047
-0.132665
-0.134202
-0.135658
-0.137031
-0.138322
-0.139528
-0.140649
-0.141686
-0.142636
-0.143499
-0.144276
-0.144965
-0.145566
-0.146078
-0.146502
-0.146837
-0.147083
-0.147239
-0.147306
-0.147284
-0.147172
-0.146971
-0.146681
-0.146301
-0.145833
-0.145276
-0.144631
-0.143899
-0.143079
-0.142172
-0.141178
-0.140099
-0.138935
-0.137687
-0.136355
-0.13494
-0.133443
-0.131866
-0.130208
-0.128471
-0.126656
-0.124765
-0.122797
-0.120755
-0.11864
-0.116453
-0.114195
-0.111867
-0.109472
-0.10701
-0.104484
-0.101893
-0.0992415
-0.0965293
-0.0937584
-0.0909307
-0.0880477
-0.0851113
-0.0821233
-0.0790853
-0.0759994
-0.0728673
-0.069691
-0.0664724
-0.0632134
-0.059916
-0.0565823
-0.0532142
-0.0498138
-0.0463832
-0.0429244
-0.0394395
-0.0359307
-0.0324001
-0.0288498
-0.025282
-0.0216989
-0.0181026
-0.0144953
-0.0108791
-0.00725644
-0.00362932
0
0
0.00422863
0.0084547
0.0126756
0.0168889
0.0210918
0.025282
0.0294569
0.0336138
0.0377503
0.041864
0.0459522
0.0500125
0.0540424
0.0580396
0.0620015
0.0659257
0.06981
0.0736518
0.077449
0.0811991
0.0848999
0.0885492
0.0921447
0.0956843
0.0991658
0.102587
0.105946
0.109241
0.112469
0.115629
0.118719
0.121737
0.124681
0.127549
0.13034
0.133052
0.135682
0.138231
0.140696
0.143075
0.145367
0.147571
0.149686
0.151709
0.153641
0.155479
0.157223
0.158871
0.160423
0.161878
0.163234
0.164491
0.165648
0.166705
0.167661
0.168514
0.169266
0.169915
0.17046
0.170902
0.17124
0.171475
0.171605
0.171631
0.171553
0.171371
0.171084
0.170694
0.1702
0.169603
0.168903
0.1681
0.167196
0.166189
0.165082
0.163875
0.162568
0.161163
0.159659
0.158059
0.156363
0.154572
0.152687
0.150709
0.14864
0.14648
0.144232
0.141896
0.139474
0.136967
0.134377
0.131706
0.128954
0.126125
0.123218
0.120237
0.117183
0.114058
0.110863
0.107602
0.104275
0.100884
0.0974324
0.0939216
0.0903538
0.0867311
0.0830558
0.07933
0.0755561
0.0717363
0.067873
0.0639684
0.0600251
0.0560452
0.0520314
0.047986
0.0439114
0.0398102
0.0356848
0.0315377
0.0273715
0.0231887
0.0189918
0.0147834
0.010566
0.00634214
0.00211448
-0.00211448
-0.00634214
-0.010566
-0.0147834
-0.0189918
-0.0231887
-0.0273715
-0.0315377
-0.0356848
-0.0398102
-0.0439114
-0.047986
-0.0520314
-0.0560452
-0.0600251
-0.0639684
-0.067873
-0.0717363
-0.0755561
-0.07933
-0.0830558
-0.0867311
-0.0903538
-0.0939216
-0.0974324
-0.100884
-0.104275
-0.107602
-0.110863
-0.114058
-0.117183
-0.120237
-0.123218
-0.126125
-0.128954
-0.131706
-0.134377
-0.136967
-0.139474
-0.141896
-0.144232
-0.14648
-0.14864
-0.150709
-0.152687
-0.154572
-0.156363
-0.158059
-0.159659
-0.161163
-0.162568
-0.163875
-0.165082
-0.166189
-0.167196
-0.1681
-0.168903
-0.169603
-0.1702
-0.170694
-0.171084
-0.171371
-0.171553
-0.171631
-0.171605
-0.171475
-0.17124
-0.170902
-0.17046
-0.169915
-0.169266
-0.168514
-0.167661
-0.166705
-0.165648
-0.164491
-0.163234
-0.161878
-0.160423
-0.158871
-0.157223
-0.155479
-0.153641
-0.151709
-0.149686
-0.147571
-0.145367
-0.143075
-0.140696
-0.138231
-0.135682
-0.133052
-0.13034
-0.127549
-0.124681
-0.121737
-0.118719
-0.115629
-0.112469
-0.109241
-0.105946
-0.102587
-0.0991658
-0.0956843
-0.0921447
-0.0885492
-0.0848999
-0.0811991
-0.077449
-0.0736518
-0.06981
-0.0659257
-0.0620015
-0.0580396
-0.0540424
-0.0500125
-0.0459522
-0.041864
-0.0377503
-0.0336138
-0.0294569
-0.025282
-0.0210918
-0.0168889
-0.0126756
-0.0084547
-0.00422863
0
0
0.00482537
0.00964782
0.0144644
0.0192722
0.0240683
0.0288498
0.0336138
0.0383574
0.0430777
0.0477718
0.0524369
0.0570702
0.0616689
0.0662301
0.0707511
0.0752291
0.0796615
0.0840455
0.0883785
0.0926579
0.096881
0.101045
0.105148
0.109187
0.11316
0.117064
0.120897
0.124657
0.128341
0.131947
0.135473
0.138916
0.142276
0.145549
0.148733
0.151828
0.15483
0.157738
0.160551
0.163265
0.165881
0.168396
0.170809
0.173118
0.175322
0.17742
0.17941
0.181291
0.183062
0.184722
0.186269
0.187704
0.189025
0.190231
0.191321
0.192295
0.193153
0.193893
0.194515
0.19502
0.195406
0.195673
0.195822
0.195852
0.195762
0.195554
0.195228
0.194782
0.194219
0.193537
0.192739
0.191823
0.19079
0.189642
0.188379
0.187001
0.18551
0.183906
0.18219
0.180364
0.178429
0.176385
0.174234
0.171977
0.169616
0.167151
0.164586
0.16192
0.159156
0.156296
0.153341
0.150292
0.147152
0.143923
0.140607
0.137205
0.13372
0.130154
0.126508
0.122786
0.11899
0.115121
0.111182
0.107176
0.103105
0.0989706
0.0947766
0.0905251
0.0862186
0.0818597
0.0774512
0.0729957
0.0684958
0.0639543
0.0593741
0.0547577
0.0501082
0.0454282
0.0407206
0.0359883
0.0312342
0.0264611
0.0216719
0.0168696
0.012057
0.00723715
0.00241287
-0.00241287
-0.00723715
-0.012057
-0.0168696
-0.0216719
-0.0264611
-0.0312342
-0.0359883
-0.0407206
-0.0454282
-0.0501082
-0.0547577
-0.0593741
-0.0639543
-0.0684958
-0.0729957
-0.0774512
-0.0818597
-0.0862186
-0.0905251
-0.0947766
-0.0989706
-0.103105
-0.107176
-0.111182
-0.115121
-0.11899
-0.122786
-0.126508
-0.130154
-0.13372
-0.137205
-0.140607
-0.143923
-0.147152
-0.150292
-0.153341
-0.156296
-0.159156
-0.16192
-0.164586
-0.167151
-0.169616
-0.171977
-0.174234
-0.176385
-0.178429
-0.180364
-0.18219
-0.183906
-0.18551
-0.187001
-0.188379
-0.189642
-0.19079
-0.191823
-0.192739
-0.193537
-0.194219
-0.194782
-0.195228
-0.195554
-0.195762
-0.195852
-0.195822
-0.195673
-0.195406
-0.19502
-0.194515
-0.193893
-0.193153
-0.192295
-0.191321
-0.190231
-0.189025
-0.187704
-0.186269
-0.184722
-0.183062
-0.181291
-0.17941
-0.17742
-0.175322
-0.173118
-0.170809
-0.168396
-0.165881
-0.163265
-0.160551
-0.157738
-0.15483
-0.151828
-0.148733
-0.145549
-0.142276
-0.138916
-0.135473
-0.131947
-0.128341
-0.124657
-0.120897
-0.117064
-0.11316
-0.109187
-0.105148
-0.101045
-0.096881
-0.0926579
-0.0883785
-0.0840455
-0.0796615
-0.0752291
-0.0707511
-0.0662301
-0.0616689
-0.0570702
-0.0524369
-0.0477718
-0.0430777
-0.0383574
-0.0336138
-0.0288498
-0.0240683
-0.0192722
-0.0144644
-0.00964782
-0.00482537
0
0
0.00541919
0.0108351
0.0162444
0.0216439
0.0270302
0.0324001
0.0377503
0.0430777
0.0483788
0.0536506
0.0588899
0.0640933
0.0692579
0.0743804
0.0794578
0.0844869
0.0894647
0.0943883
0.0992545
0.10406
0.108803
0.11348
0.118088
0.122624
0.127086
0.13147
0.135775
0.139997
0.144135
0.148184
0.152144
0.156012
0.159784
0.16346
0.167037
0.170512
0.173883
0.177149
0.180308
0.183357
0.186295
0.189119
0.191829
0.194422
0.196898
0.199254
0.201488
0.203601
0.20559
0.207454
0.209192
0.210803
0.212286
0.21364
0.214865
0.215959
0.216922
0.217753
0.218453
0.219019
0.219453
0.219753
0.21992
0.219953
0.219853
0.219619
0.219253
0.218752
0.21812
0.217354
0.216457
0.215428
0.214269
0.212979
0.211561
0.210013
0.208339
0.206537
0.204611
0.20256
0.200386
0.198091
0.195675
0.19314
0.190489
0.187721
0.18484
0.181846
0.178742
0.17553
0.172211
0.168787
0.165261
0.161635
0.15791
0.15409
0.150176
0.146171
0.142077
0.137897
0.133633
0.129288
0.124864
0.120365
0.115793
0.11115
0.10644
0.101665
0.0968287
0.0919335
0.0869824
0.0819786
0.0769249
0.0718246
0.0666807
0.0614963
0.0562745
0.0510186
0.0457317
0.0404171
0.0350779
0.0297174
0.0243389
0.0189456
0.0135408
0.00812776
0.0027098
-0.0027098
-0.00812776
-0.0135408
-0.0189456
-0.0243389
-0.0297174
-0.0350779
-0.0404171
-0.0457317
-0.0510186
-0.0562745
-0.0614963
-0.0666807
-0.0718246
-0.0769249
-0.0819786
-0.0869824
-0.0919335
-0.0968287
-0.101665
-0.10644
-0.11115
-0.115793
-0.120365
-0.124864
-0.129288
-0.133633
-0.137897
-0.142077
-0.146171
-0.150176
-0.15409
-0.15791
-0.161635
-0.165261
-0.168787
-0.172211
-0.17553
-0.178742
-0.181846
-0.18484
-0.187721
-0.190489
-0.19314
-0.195675
-0.198091
-0.200386
-0.20256
-0.204611
-0.206537
-0.208339
-0.210013
-0.211561
-0.212979
-0.214269
-0.215428
-0.216457
-0.217354
-0.21812
-0.218752
-0.219253
-0.219619
-0.219853
-0.219953
-0.21992
-0.219753
-0.219453
-0.219019
-0.218453
-0.217753
-0.216922
-0.215959
-0.214865
-0.21364
-0.212286
-0.210803
-0.209192
-0.207454
-0.20559
-0.203601
-0.201488
-0.199254
-0.196898
-0.194422
-0.191829
-0.189119
-0.186295
-0.183357
-0.180308
-0.177149
-0.173883
-0.170512
-0.167037
-0.16346
-0.159784
-0.156012
-0.152144
-0.148184
-0.144135
-0.139997
-0.135775
-0.13147
-0.127086
-0.122624
-0.118088
-0.11348
-0.108803
-0.10406
-0.0992545
-0.0943883
-0.0894647
-0.0844869
-0.0794578
-0.0743804
-0.0692579
-0.0640933
-0.0588899
-0.0536506
-0.0483788
-0.0430777
-0.0377503
-0.0324001
-0.0270302
-0.0216439
-0.0162444
-0.0108351
-0.00541919
0
0
0.00600971
0.0120158
0.0180145
0.0240024
0.0299756
0.0359307
0.041864
0.0477718
0.0536506
0.0594969
0.065307
0.0710775
0.0768049
0.0824856
0.0881162
0.0936934
0.0992136
0.104674
0.11007
0.1154
0.120659
0.125846
0.130956
0.135986
0.140934
0.145796
0.15057
0.155253
0.159841
0.164332
0.168723
0.173012
0.177196
0.181272
0.185239
0.189092
0.192831
0.196453
0.199956
0.203337
0.206595
0.209728
0.212733
0.215609
0.218354
0.220966
0.223444
0.225787
0.227993
0.23006
0.231987
0.233774
0.235419
0.236921
0.238279
0.239492
0.24056
0.241482
0.242257
0.242885
0.243366
0.243699
0.243884
0.243921
0.24381
0.243551
0.243144
0.24259
0.241888
0.241039
0.240044
0.238903
0.237618
0.236188
0.234614
0.232898
0.231041
0.229044
0.226907
0.224633
0.222222
0.219676
0.216998
0.214187
0.211246
0.208177
0.204982
0.201662
0.19822
0.194657
0.190976
0.18718
0.183269
0.179248
0.175117
0.170881
0.16654
0.162099
0.157559
0.152923
0.148195
0.143376
0.138471
0.133481
0.12841
0.123262
0.118039
0.112744
0.10738
0.101951
0.0964608
0.0909117
0.0853074
0.0796513
0.0739468
0.0681975
0.0624067
0.0565781
0.0507151
0.0448213
0.0389003
0.0329557
0.0269911
0.0210101
0.0150163
0.00901343
0.00300508
-0.00300508
-0.00901343
-0.0150163
-0.0210101
-0.0269911
-0.0329557
-0.0389003
-0.0448213
-0.0507151
-0.0565781
-0.0624067
-0.0681975
-0.0739468
-0.0796513
-0.0853074
-0.0909117
-0.0964608
-0.101951
-0.10738
-0.112744
-0.118039
-0.123262
-0.12841
-0.133481
-0.138471
-0.143376
-0.148195
-0.152923
-0.157559
-0.162099
-0.16654
-0.170881
-0.175117
-0.179248
-0.183269
-0.18718
-0.190976
-0.194657
-0.19822
-0.201662
-0.204982
-0.208177
-0.211246
-0.214187
-0.216998
-0.219676
-0.222222
-0.224633
-0.226907
-0.229044
-0.231041
-0.232898
-0.234614
-0.236188
-0.237618
-0.238903
-0.240044
-0.241039
-0.241888
-0.24259
-0.243144
-0.243551
-0.24381
-0.243921
-0.243884
-0.243699
-0.243366
-0.242885
-0.242257
-0.241482
-0.24056
-0.239492
-0.238279
-0.236921
-0.235419
-0.233774
-0.231987
-0.23006
-0.227993
-0.225787
-0.223444
-0.220966
-0.218354
-0.215609
-0.212733
-0.209728
-0.206595
-0.203337
-0.199956
-0.196453
-0.192831
-0.189092
-0.185239
-0.181272
-0.177196
-0.173012
-0.168723
-0.164332
-0.159841
-0.155253
-0.15057
-0.145796
-0.140934
-0.135986
-0.130956
-0.125846
-0.120659
-0.1154
-0.11007
-0.104674
-0.0992136
-0.0936934
-0.0881162
-0.0824856
-0.0768049
-0.0710775
-0.065307
-0.0594969
-0.0536506
-0.0477718
-0.041864
-0.0359307
-0.0299756
-0.0240024
-0.0180145
-0.0120158
-0.00600971
0
0
0.00659659
0.0131892
0.0197738
0.0263463
0.0329029
0.0394395
0.0459522
0.0524369
0.0588899
0.065307
0.0716846
0.0780186
0.0843052
0.0905407
0.0967212
0.102843
0.108902
0.114896
0.120819
0.126669
0.132442
0.138135
0.143744
0.149266
0.154697
0.160034
0.165274
0.170414
0.17545
0.18038
0.1852
0.189908
0.1945
0.198974
0.203328
0.207558
0.211662
0.215638
0.219483
0.223194
0.22677
0.230208
0.233507
0.236664
0.239677
0.242544
0.245265
0.247836
0.250257
0.252526
0.254642
0.256603
0.258409
0.260057
0.261548
0.262879
0.264052
0.265064
0.265915
0.266604
0.267132
0.267498
0.267701
0.267741
0.267619
0.267335
0.266888
0.26628
0.265509
0.264578
0.263486
0.262233
0.260822
0.259252
0.257525
0.255642
0.253603
0.251411
0.249066
0.246569
0.243923
0.241129
0.238188
0.235103
0.231875
0.228507
0.224999
0.221355
0.217577
0.213666
0.209626
0.205459
0.201166
0.196752
0.192218
0.187568
0.182804
0.177928
0.172945
0.167857
0.162666
0.157377
0.151993
0.146516
0.14095
0.135299
0.129566
0.123753
0.117866
0.111907
0.105881
0.0997896
0.093638
0.0874296
0.081168
0.0748572
0.068501
0.0621032
0.0556676
0.0491983
0.0426991
0.0361739
0.0296269
0.0230618
0.0164827
0.00989363
0.00329854
-0.00329854
-0.00989363
-0.0164827
-0.0230618
-0.0296269
-0.0361739
-0.0426991
-0.0491983
-0.0556676
-0.0621032
-0.068501
-0.0748572
-0.081168
-0.0874296
-0.093638
-0.0997896
-0.105881
-0.111907
-0.117866
-0.123753
-0.129566
-0.135299
-0.14095
-0.146516
-0.151993
-0.157377
-0.162666
-0.167857
-0.172945
-0.177928
-0.182804
-0.187568
-0.192218
-0.196752
-0.201166
-0.205459
-0.209626
-0.213666
-0.217577
-0.221355
-0.224999
-0.228507
-0.231875
-0.235103
-0.238188
-0.241129
-0.243923
-0.246569
-0.249066
-0.251411
-0.253603
-0.255642
-0.257525
-0.259252
-0.260822
-0.262233
-0.263486
-0.264578
-0.265509
-0.26628
-0.266888
-0.267335
-0.267619
-0.267741
-0.267701
-0.267498
-0.267132
-0.266604
-0.265915
-0.265064
-0.264052
-0.262879
-0.261548
-0.260057
-0.258409
-0.256603
-0.254642
-0.252526
-0.250257
-0.247836
-0.245265
-0.242544
-0.239677
-0.236664
-0.233507
-0.230208
-0.22677
-0.223194
-0.219483
-0.215638
-0.211662
-0.207558
-0.203328
-0.198974
-0.1945
-0.189908
-0.1852
-0.18038
-0.17545
-0.170414
-0.165274
-0.160034
-0.154697
-0.149266
-0.143744
-0.138135
-0.132442
-0.126669
-0.120819
-0.114896
-0.108902
-0.102843
-0.0967212
-0.0905407
-0.0843052
-0.0780186
-0.0716846
-0.065307
-0.0588899
-0.0524369
-0.0459522
-0.0394395
-0.0329029
-0.0263463
-0.0197738
-0.0131892
-0.00659659
0
0
0.00717946
0.0143546
0.0215209
0.0286743
0.0358102
0.0429244
0.0500125
0.0570702
0.0640933
0.0710775
0.0780186
0.0849122
0.0917544
0.0985408
0.105267
0.11193
0.118525
0.125048
0.131494
0.137862
0.144145
0.150341
0.156445
0.162455
0.168366
0.174175
0.179878
0.185471
0.190953
0.196318
0.201564
0.206688
0.211686
0.216556
0.221294
0.225898
0.230365
0.234692
0.238876
0.242915
0.246807
0.250549
0.254139
0.257575
0.260854
0.263975
0.266936
0.269735
0.27237
0.274839
0.277142
0.279276
0.281241
0.283036
0.284658
0.286107
0.287383
0.288485
0.289411
0.290161
0.290736
0.291134
0.291355
0.291399
0.291266
0.290957
0.290471
0.289808
0.28897
0.287956
0.286767
0.285404
0.283868
0.28216
0.28028
0.27823
0.276012
0.273625
0.271073
0.268356
0.265476
0.262435
0.259234
0.255877
0.252364
0.248697
0.24488
0.240914
0.236802
0.232546
0.228149
0.223613
0.218941
0.214137
0.209203
0.204141
0.198956
0.19365
0.188226
0.182688
0.17704
0.171283
0.165423
0.159462
0.153405
0.147254
0.141014
0.134688
0.128281
0.121795
0.115236
0.108607
0.101912
0.0951548
0.08834
0.0814716
0.0745537
0.0675906
0.0605864
0.0535454
0.0464719
0.0393703
0.0322447